108
Lattice="9.55674444 0.0 0.0 0.0 13.32366549 0.0 0.0 0.0 13.32632457" Properties=species:S:1:pos:R:3:forces:R:3 energy=-294.1066426 stress="0.009432076360254426 -0.0 -0.0 -0.0 0.004263922024145417 0.0 -0.0 0.0 0.004404148068567298" free_energy=-294.10107497 pbc="T T T"
Mg       1.59279077       3.33091637       3.32606191      -0.00000000       0.00000000       0.00293344
Mg       1.59279077       1.11030541       1.11604623       0.00000000       0.00000000      -0.00293344
Mg       4.77837222       3.33091637       3.32606191       0.00000000       0.00000000       0.00293344
Mg       4.77837222       1.11030541       1.11604623      -0.00000000       0.00000000      -0.00293344
Mg       7.96395367       3.33091637       3.32606191       0.00000000       0.00000000       0.00293344
Mg       7.96395367       1.11030541       1.11604623      -0.00000000       0.00000000      -0.00293344
Mg       1.59279077       7.77213816       3.32606191       0.00000000      -0.00000000       0.00293344
Mg       1.59279077       5.55152733       1.11604623      -0.00000000       0.00000000      -0.00293344
Mg       4.77837222       7.77213816       3.32606191      -0.00000000      -0.00000000       0.00293344
Mg       4.77837222       5.55152733       1.11604623      -0.00000000      -0.00000000      -0.00293344
Mg       7.96395367       7.77213816       3.32606191      -0.00000000      -0.00000000       0.00293344
Mg       7.96395367       5.55152733       1.11604623      -0.00000000       0.00000000      -0.00293344
Mg       1.59279077      12.21336008       3.32606191      -0.00000000      -0.00000000       0.00293344
Mg       1.59279077       9.99274912       1.11604623       0.00000000       0.00000000      -0.00293344
Mg       4.77837222      12.21336008       3.32606191      -0.00000000      -0.00000000       0.00293344
Mg       4.77837222       9.99274912       1.11604623       0.00000000       0.00000000      -0.00293344
Mg       7.96395367      12.21336008       3.32606191       0.00000000      -0.00000000       0.00293344
Mg       7.96395367       9.99274912       1.11604623       0.00000000      -0.00000000      -0.00293344
Mg       1.59279077       3.33091637       7.76817019       0.00000000       0.00000000       0.00293344
Mg       1.59279077       1.11030541       5.55815438      -0.00000000       0.00000000      -0.00293344
Mg       4.77837222       3.33091637       7.76817019       0.00000000       0.00000000       0.00293344
Mg       4.77837222       1.11030541       5.55815438       0.00000000      -0.00000000      -0.00293344
Mg       7.96395367       3.33091637       7.76817019       0.00000000       0.00000000       0.00293344
Mg       7.96395367       1.11030541       5.55815438       0.00000000      -0.00000000      -0.00293344
Mg       1.59279077       7.77213816       7.76817019       0.00000000      -0.00000000       0.00293344
Mg       1.59279077       5.55152733       5.55815438      -0.00000000      -0.00000000      -0.00293344
Mg       4.77837222       7.77213816       7.76817019      -0.00000000      -0.00000000       0.00293344
Mg       4.77837222       5.55152733       5.55815438      -0.00000000      -0.00000000      -0.00293344
Mg       7.96395367       7.77213816       7.76817019      -0.00000000      -0.00000000       0.00293344
Mg       7.96395367       5.55152733       5.55815438      -0.00000000       0.00000000      -0.00293344
Mg       1.59279077      12.21336008       7.76817019      -0.00000000       0.00000000       0.00293344
Mg       1.59279077       9.99274912       5.55815438       0.00000000      -0.00000000      -0.00293344
Mg       4.77837222      12.21336008       7.76817019      -0.00000000       0.00000000       0.00293344
Mg       4.77837222       9.99274912       5.55815438       0.00000000      -0.00000000      -0.00293344
Mg       7.96395367      12.21336008       7.76817019      -0.00000000       0.00000000       0.00293344
Mg       7.96395367       9.99274912       5.55815438       0.00000000       0.00000000      -0.00293344
Mg       1.59279077       3.33091637      12.21027834       0.00000000       0.00000000       0.00293344
Mg       1.59279077       1.11030541      10.00026266       0.00000000      -0.00000000      -0.00293344
Mg       4.77837222       3.33091637      12.21027834      -0.00000000       0.00000000       0.00293344
Mg       4.77837222       1.11030541      10.00026266      -0.00000000      -0.00000000      -0.00293344
Mg       7.96395367       3.33091637      12.21027834       0.00000000       0.00000000       0.00293344
Mg       7.96395367       1.11030541      10.00026266       0.00000000      -0.00000000      -0.00293344
Mg       1.59279077       7.77213816      12.21027834      -0.00000000      -0.00000000       0.00293344
Mg       1.59279077       5.55152733      10.00026266      -0.00000000       0.00000000      -0.00293344
Mg       4.77837222       7.77213816      12.21027834      -0.00000000      -0.00000000       0.00293344
Mg       4.77837222       5.55152733      10.00026266       0.00000000       0.00000000      -0.00293344
Mg       7.96395367       7.77213816      12.21027834       0.00000000      -0.00000000       0.00293344
Mg       7.96395367       5.55152733      10.00026266      -0.00000000       0.00000000      -0.00293344
Mg       1.59279077      12.21336008      12.21027834      -0.00000000       0.00000000       0.00293344
Mg       1.59279077       9.99274912      10.00026266       0.00000000       0.00000000      -0.00293344
Mg       4.77837222      12.21336008      12.21027834      -0.00000000       0.00000000       0.00293344
Mg       4.77837222       9.99274912      10.00026266       0.00000000       0.00000000      -0.00293344
Mg       7.96395367      12.21336008      12.21027834      -0.00000000       0.00000000       0.00293344
Mg       7.96395367       9.99274912      10.00026266      -0.00000000       0.00000000      -0.00293344
Cu       0.00000000       3.33091637       1.10096350      -0.00000000       0.00000000       0.00693472
Cu       0.00000000       1.11030541       3.34114465       0.00000000      -0.00000000      -0.00693472
Cu       3.18558145       3.33091637       1.10096350      -0.00000000       0.00000000       0.00693472
Cu       3.18558145       1.11030541       3.34114465      -0.00000000      -0.00000000      -0.00693472
Cu       6.37116299       3.33091637       1.10096350      -0.00000000       0.00000000       0.00693472
Cu       6.37116299       1.11030541       3.34114465       0.00000000       0.00000000      -0.00693472
Cu       0.00000000       7.77213816       1.10096350      -0.00000000      -0.00000000       0.00693472
Cu       0.00000000       5.55152733       3.34114465      -0.00000000       0.00000000      -0.00693472
Cu       3.18558145       7.77213816       1.10096350       0.00000000      -0.00000000       0.00693472
Cu       3.18558145       5.55152733       3.34114465      -0.00000000      -0.00000000      -0.00693472
Cu       6.37116299       7.77213816       1.10096350      -0.00000000      -0.00000000       0.00693472
Cu       6.37116299       5.55152733       3.34114465       0.00000000      -0.00000000      -0.00693472
Cu       0.00000000      12.21336008       1.10096350      -0.00000000      -0.00000000       0.00693472
Cu       0.00000000       9.99274912       3.34114465      -0.00000000       0.00000000      -0.00693472
Cu       3.18558145      12.21336008       1.10096350       0.00000000      -0.00000000       0.00693472
Cu       3.18558145       9.99274912       3.34114465       0.00000000       0.00000000      -0.00693472
Cu       6.37116299      12.21336008       1.10096350       0.00000000      -0.00000000       0.00693472
Cu       6.37116299       9.99274912       3.34114465      -0.00000000      -0.00000000      -0.00693472
Cu       0.00000000       3.33091637       5.54307178       0.00000000      -0.00000000       0.00693472
Cu       0.00000000       1.11030541       7.78325279      -0.00000000       0.00000000      -0.00693472
Cu       3.18558145       3.33091637       5.54307178       0.00000000       0.00000000       0.00693472
Cu       3.18558145       1.11030541       7.78325279      -0.00000000      -0.00000000      -0.00693472
Cu       6.37116299       3.33091637       5.54307178       0.00000000       0.00000000       0.00693472
Cu       6.37116299       1.11030541       7.78325279      -0.00000000      -0.00000000      -0.00693472
Cu       0.00000000       7.77213816       5.54307178      -0.00000000      -0.00000000       0.00693472
Cu       0.00000000       5.55152733       7.78325279       0.00000000      -0.00000000      -0.00693472
Cu       3.18558145       7.77213816       5.54307178       0.00000000      -0.00000000       0.00693472
Cu       3.18558145       5.55152733       7.78325279       0.00000000      -0.00000000      -0.00693472
Cu       6.37116299       7.77213816       5.54307178       0.00000000       0.00000000       0.00693472
Cu       6.37116299       5.55152733       7.78325279       0.00000000       0.00000000      -0.00693472
Cu       0.00000000      12.21336008       5.54307178      -0.00000000      -0.00000000       0.00693472
Cu       0.00000000       9.99274912       7.78325279       0.00000000      -0.00000000      -0.00693472
Cu       3.18558145      12.21336008       5.54307178      -0.00000000      -0.00000000       0.00693472
Cu       3.18558145       9.99274912       7.78325279       0.00000000       0.00000000      -0.00693472
Cu       6.37116299      12.21336008       5.54307178      -0.00000000      -0.00000000       0.00693472
Cu       6.37116299       9.99274912       7.78325279      -0.00000000       0.00000000      -0.00693472
Cu       0.00000000       3.33091637       9.98517992       0.00000000      -0.00000000       0.00693472
Cu       0.00000000       1.11030541      12.22536107       0.00000000       0.00000000      -0.00693472
Cu       3.18558145       3.33091637       9.98517992       0.00000000       0.00000000       0.00693472
Cu       3.18558145       1.11030541      12.22536107      -0.00000000      -0.00000000      -0.00693472
Cu       6.37116299       3.33091637       9.98517992       0.00000000       0.00000000       0.00693472
Cu       6.37116299       1.11030541      12.22536107       0.00000000       0.00000000      -0.00693472
Cu       0.00000000       7.77213816       9.98517992      -0.00000000       0.00000000       0.00693472
Cu       0.00000000       5.55152733      12.22536107      -0.00000000       0.00000000      -0.00693472
Cu       3.18558145       7.77213816       9.98517992      -0.00000000       0.00000000       0.00693472
Cu       3.18558145       5.55152733      12.22536107      -0.00000000       0.00000000      -0.00693472
Cu       6.37116299       7.77213816       9.98517992      -0.00000000      -0.00000000       0.00693472
Cu       6.37116299       5.55152733      12.22536107       0.00000000       0.00000000      -0.00693472
Cu       0.00000000      12.21336008       9.98517992      -0.00000000      -0.00000000       0.00693472
Cu       0.00000000       9.99274912      12.22536107      -0.00000000       0.00000000      -0.00693472
Cu       3.18558145      12.21336008       9.98517992      -0.00000000       0.00000000       0.00693472
Cu       3.18558145       9.99274912      12.22536107       0.00000000       0.00000000      -0.00693472
Cu       6.37116299      12.21336008       9.98517992      -0.00000000       0.00000000       0.00693472
Cu       6.37116299       9.99274912      12.22536107       0.00000000       0.00000000      -0.00693472
108
Lattice="9.48842118 0.0 0.0 0.0 13.28060447 -0.0 0.0 0.0 13.28183854" Properties=species:S:1:pos:R:3:forces:R:3 energy=-294.18831447 stress="0.0019850654657611643 -0.0 -0.0 -0.0 -0.001466565645444725 -0.0 -0.0 -0.0 -0.0014273870310615882" free_energy=-294.18148469 pbc="T T T"
Mg       1.58140356       3.32015112       3.31509988      -0.00000000      -0.00000000       0.00242712
Mg       1.58140356       1.10671699       1.11217959      -0.00000000       0.00000000      -0.00242712
Mg       4.74421059       3.32015112       3.31509988       0.00000000      -0.00000000       0.00242712
Mg       4.74421059       1.10671699       1.11217959       0.00000000       0.00000000      -0.00242712
Mg       7.90701762       3.32015112       3.31509988       0.00000000      -0.00000000       0.00242712
Mg       7.90701762       1.10671699       1.11217959      -0.00000000       0.00000000      -0.00242712
Mg       1.58140356       7.74701923       3.31509988       0.00000000      -0.00000000       0.00242712
Mg       1.58140356       5.53358524       1.11217959      -0.00000000      -0.00000000      -0.00242712
Mg       4.74421059       7.74701923       3.31509988       0.00000000      -0.00000000       0.00242712
Mg       4.74421059       5.53358524       1.11217959      -0.00000000      -0.00000000      -0.00242712
Mg       7.90701762       7.74701923       3.31509988       0.00000000      -0.00000000       0.00242712
Mg       7.90701762       5.53358524       1.11217959      -0.00000000      -0.00000000      -0.00242712
Mg       1.58140356      12.17388748       3.31509988      -0.00000000       0.00000000       0.00242712
Mg       1.58140356       9.96045335       1.11217959       0.00000000      -0.00000000      -0.00242712
Mg       4.74421059      12.17388748       3.31509988      -0.00000000      -0.00000000       0.00242712
Mg       4.74421059       9.96045335       1.11217959       0.00000000      -0.00000000      -0.00242712
Mg       7.90701762      12.17388748       3.31509988      -0.00000000      -0.00000000       0.00242712
Mg       7.90701762       9.96045335       1.11217959       0.00000000      -0.00000000      -0.00242712
Mg       1.58140356       3.32015112       7.74237948       0.00000000       0.00000000       0.00242712
Mg       1.58140356       1.10671699       5.53945906       0.00000000       0.00000000      -0.00242712
Mg       4.74421059       3.32015112       7.74237948       0.00000000       0.00000000       0.00242712
Mg       4.74421059       1.10671699       5.53945906      -0.00000000       0.00000000      -0.00242712
Mg       7.90701762       3.32015112       7.74237948       0.00000000       0.00000000       0.00242712
Mg       7.90701762       1.10671699       5.53945906       0.00000000       0.00000000      -0.00242712
Mg       1.58140356       7.74701923       7.74237948      -0.00000000      -0.00000000       0.00242712
Mg       1.58140356       5.53358524       5.53945906      -0.00000000       0.00000000      -0.00242712
Mg       4.74421059       7.74701923       7.74237948       0.00000000      -0.00000000       0.00242712
Mg       4.74421059       5.53358524       5.53945906      -0.00000000       0.00000000      -0.00242712
Mg       7.90701762       7.74701923       7.74237948       0.00000000      -0.00000000       0.00242712
Mg       7.90701762       5.53358524       5.53945906      -0.00000000       0.00000000      -0.00242712
Mg       1.58140356      12.17388748       7.74237948      -0.00000000       0.00000000       0.00242712
Mg       1.58140356       9.96045335       5.53945906      -0.00000000      -0.00000000      -0.00242712
Mg       4.74421059      12.17388748       7.74237948      -0.00000000       0.00000000       0.00242712
Mg       4.74421059       9.96045335       5.53945906       0.00000000      -0.00000000      -0.00242712
Mg       7.90701762      12.17388748       7.74237948      -0.00000000       0.00000000       0.00242712
Mg       7.90701762       9.96045335       5.53945906       0.00000000      -0.00000000      -0.00242712
Mg       1.58140356       3.32015112      12.16965895      -0.00000000       0.00000000       0.00242712
Mg       1.58140356       1.10671699       9.96673866      -0.00000000       0.00000000      -0.00242712
Mg       4.74421059       3.32015112      12.16965895       0.00000000      -0.00000000       0.00242712
Mg       4.74421059       1.10671699       9.96673866       0.00000000       0.00000000      -0.00242712
Mg       7.90701762       3.32015112      12.16965895       0.00000000       0.00000000       0.00242712
Mg       7.90701762       1.10671699       9.96673866      -0.00000000       0.00000000      -0.00242712
Mg       1.58140356       7.74701923      12.16965895      -0.00000000      -0.00000000       0.00242712
Mg       1.58140356       5.53358524       9.96673866      -0.00000000      -0.00000000      -0.00242712
Mg       4.74421059       7.74701923      12.16965895       0.00000000      -0.00000000       0.00242712
Mg       4.74421059       5.53358524       9.96673866      -0.00000000      -0.00000000      -0.00242712
Mg       7.90701762       7.74701923      12.16965895       0.00000000      -0.00000000       0.00242712
Mg       7.90701762       5.53358524       9.96673866      -0.00000000      -0.00000000      -0.00242712
Mg       1.58140356      12.17388748      12.16965895      -0.00000000       0.00000000       0.00242712
Mg       1.58140356       9.96045335       9.96673866      -0.00000000      -0.00000000      -0.00242712
Mg       4.74421059      12.17388748      12.16965895       0.00000000       0.00000000       0.00242712
Mg       4.74421059       9.96045335       9.96673866      -0.00000000      -0.00000000      -0.00242712
Mg       7.90701762      12.17388748      12.16965895      -0.00000000       0.00000000       0.00242712
Mg       7.90701762       9.96045335       9.96673866       0.00000000      -0.00000000      -0.00242712
Cu       0.00000000       3.32015112       1.09762176       0.00000000       0.00000000       0.00373392
Cu       0.00000000       1.10671699       3.32965784       0.00000000      -0.00000000      -0.00373392
Cu       3.16280703       3.32015112       1.09762176       0.00000000       0.00000000       0.00373392
Cu       3.16280703       1.10671699       3.32965784       0.00000000      -0.00000000      -0.00373392
Cu       6.32561415       3.32015112       1.09762176       0.00000000      -0.00000000       0.00373392
Cu       6.32561415       1.10671699       3.32965784       0.00000000       0.00000000      -0.00373392
Cu       0.00000000       7.74701923       1.09762176      -0.00000000      -0.00000000       0.00373392
Cu       0.00000000       5.53358524       3.32965784       0.00000000       0.00000000      -0.00373392
Cu       3.16280703       7.74701923       1.09762176       0.00000000       0.00000000       0.00373392
Cu       3.16280703       5.53358524       3.32965784      -0.00000000       0.00000000      -0.00373392
Cu       6.32561415       7.74701923       1.09762176       0.00000000       0.00000000       0.00373392
Cu       6.32561415       5.53358524       3.32965784      -0.00000000      -0.00000000      -0.00373392
Cu       0.00000000      12.17388748       1.09762176      -0.00000000      -0.00000000       0.00373392
Cu       0.00000000       9.96045335       3.32965784      -0.00000000      -0.00000000      -0.00373392
Cu       3.16280703      12.17388748       1.09762176      -0.00000000      -0.00000000       0.00373392
Cu       3.16280703       9.96045335       3.32965784      -0.00000000      -0.00000000      -0.00373392
Cu       6.32561415      12.17388748       1.09762176      -0.00000000      -0.00000000       0.00373392
Cu       6.32561415       9.96045335       3.32965784      -0.00000000      -0.00000000      -0.00373392
Cu       0.00000000       3.32015112       5.52490123       0.00000000      -0.00000000       0.00373392
Cu       0.00000000       1.10671699       7.75693731       0.00000000       0.00000000      -0.00373392
Cu       3.16280703       3.32015112       5.52490123       0.00000000      -0.00000000       0.00373392
Cu       3.16280703       1.10671699       7.75693731      -0.00000000      -0.00000000      -0.00373392
Cu       6.32561415       3.32015112       5.52490123       0.00000000      -0.00000000       0.00373392
Cu       6.32561415       1.10671699       7.75693731       0.00000000       0.00000000      -0.00373392
Cu       0.00000000       7.74701923       5.52490123      -0.00000000       0.00000000       0.00373392
Cu       0.00000000       5.53358524       7.75693731      -0.00000000      -0.00000000      -0.00373392
Cu       3.16280703       7.74701923       5.52490123      -0.00000000       0.00000000       0.00373392
Cu       3.16280703       5.53358524       7.75693731      -0.00000000       0.00000000      -0.00373392
Cu       6.32561415       7.74701923       5.52490123       0.00000000       0.00000000       0.00373392
Cu       6.32561415       5.53358524       7.75693731      -0.00000000       0.00000000      -0.00373392
Cu       0.00000000      12.17388748       5.52490123      -0.00000000       0.00000000       0.00373392
Cu       0.00000000       9.96045335       7.75693731       0.00000000      -0.00000000      -0.00373392
Cu       3.16280703      12.17388748       5.52490123      -0.00000000       0.00000000       0.00373392
Cu       3.16280703       9.96045335       7.75693731       0.00000000       0.00000000      -0.00373392
Cu       6.32561415      12.17388748       5.52490123      -0.00000000       0.00000000       0.00373392
Cu       6.32561415       9.96045335       7.75693731      -0.00000000       0.00000000      -0.00373392
Cu       0.00000000       3.32015112       9.95218070      -0.00000000       0.00000000       0.00373392
Cu       0.00000000       1.10671699      12.18421678      -0.00000000       0.00000000      -0.00373392
Cu       3.16280703       3.32015112       9.95218070      -0.00000000       0.00000000       0.00373392
Cu       3.16280703       1.10671699      12.18421678      -0.00000000       0.00000000      -0.00373392
Cu       6.32561415       3.32015112       9.95218070      -0.00000000       0.00000000       0.00373392
Cu       6.32561415       1.10671699      12.18421678       0.00000000       0.00000000      -0.00373392
Cu       0.00000000       7.74701923       9.95218070      -0.00000000      -0.00000000       0.00373392
Cu       0.00000000       5.53358524      12.18421678       0.00000000      -0.00000000      -0.00373392
Cu       3.16280703       7.74701923       9.95218070       0.00000000      -0.00000000       0.00373392
Cu       3.16280703       5.53358524      12.18421678       0.00000000       0.00000000      -0.00373392
Cu       6.32561415       7.74701923       9.95218070       0.00000000       0.00000000       0.00373392
Cu       6.32561415       5.53358524      12.18421678       0.00000000      -0.00000000      -0.00373392
Cu       0.00000000      12.17388748       9.95218070       0.00000000      -0.00000000       0.00373392
Cu       0.00000000       9.96045335      12.18421678      -0.00000000      -0.00000000      -0.00373392
Cu       3.16280703      12.17388748       9.95218070       0.00000000      -0.00000000       0.00373392
Cu       3.16280703       9.96045335      12.18421678      -0.00000000      -0.00000000      -0.00373392
Cu       6.32561415      12.17388748       9.95218070       0.00000000       0.00000000       0.00373392
Cu       6.32561415       9.96045335      12.18421678      -0.00000000       0.00000000      -0.00373392
108
Lattice="9.48401603 0.0 0.0 0.0 13.27782811 -0.0 0.0 0.0 13.2789703" Properties=species:S:1:pos:R:3:forces:R:3 energy=-294.18822699 stress="0.0015085528078628173 -0.0 -0.0 -0.0 -0.0017863120475262897 -0.0 -0.0 -0.0 -0.0017732406671752629" free_energy=-294.18136165 pbc="T T T"
Mg       1.58066937       3.31945703       3.31439314      -0.00000000       0.00000000       0.00247325
Mg       1.58066937       1.10648563       1.11193025      -0.00000000      -0.00000000      -0.00247325
Mg       4.74200801       3.31945703       3.31439314      -0.00000000       0.00000000       0.00247325
Mg       4.74200801       1.10648563       1.11193025       0.00000000       0.00000000      -0.00247325
Mg       7.90334666       3.31945703       3.31439314      -0.00000000       0.00000000       0.00247325
Mg       7.90334666       1.10648563       1.11193025      -0.00000000      -0.00000000      -0.00247325
Mg       1.58066937       7.74539969       3.31439314       0.00000000      -0.00000000       0.00247325
Mg       1.58066937       5.53242842       1.11193025      -0.00000000      -0.00000000      -0.00247325
Mg       4.74200801       7.74539969       3.31439314      -0.00000000       0.00000000       0.00247325
Mg       4.74200801       5.53242842       1.11193025       0.00000000      -0.00000000      -0.00247325
Mg       7.90334666       7.74539969       3.31439314      -0.00000000      -0.00000000       0.00247325
Mg       7.90334666       5.53242842       1.11193025      -0.00000000      -0.00000000      -0.00247325
Mg       1.58066937      12.17134248       3.31439314       0.00000000      -0.00000000       0.00247325
Mg       1.58066937       9.95837108       1.11193025      -0.00000000      -0.00000000      -0.00247325
Mg       4.74200801      12.17134248       3.31439314       0.00000000       0.00000000       0.00247325
Mg       4.74200801       9.95837108       1.11193025       0.00000000      -0.00000000      -0.00247325
Mg       7.90334666      12.17134248       3.31439314       0.00000000      -0.00000000       0.00247325
Mg       7.90334666       9.95837108       1.11193025       0.00000000      -0.00000000      -0.00247325
Mg       1.58066937       3.31945703       7.74071653      -0.00000000       0.00000000       0.00247325
Mg       1.58066937       1.10648563       5.53825377       0.00000000       0.00000000      -0.00247325
Mg       4.74200801       3.31945703       7.74071653       0.00000000       0.00000000       0.00247325
Mg       4.74200801       1.10648563       5.53825377      -0.00000000       0.00000000      -0.00247325
Mg       7.90334666       3.31945703       7.74071653       0.00000000       0.00000000       0.00247325
Mg       7.90334666       1.10648563       5.53825377       0.00000000       0.00000000      -0.00247325
Mg       1.58066937       7.74539969       7.74071653      -0.00000000      -0.00000000       0.00247325
Mg       1.58066937       5.53242842       5.53825377       0.00000000       0.00000000      -0.00247325
Mg       4.74200801       7.74539969       7.74071653       0.00000000       0.00000000       0.00247325
Mg       4.74200801       5.53242842       5.53825377       0.00000000       0.00000000      -0.00247325
Mg       7.90334666       7.74539969       7.74071653       0.00000000       0.00000000       0.00247325
Mg       7.90334666       5.53242842       5.53825377       0.00000000       0.00000000      -0.00247325
Mg       1.58066937      12.17134248       7.74071653      -0.00000000       0.00000000       0.00247325
Mg       1.58066937       9.95837108       5.53825377      -0.00000000      -0.00000000      -0.00247325
Mg       4.74200801      12.17134248       7.74071653       0.00000000       0.00000000       0.00247325
Mg       4.74200801       9.95837108       5.53825377       0.00000000      -0.00000000      -0.00247325
Mg       7.90334666      12.17134248       7.74071653       0.00000000      -0.00000000       0.00247325
Mg       7.90334666       9.95837108       5.53825377      -0.00000000      -0.00000000      -0.00247325
Mg       1.58066937       3.31945703      12.16704005       0.00000000      -0.00000000       0.00247325
Mg       1.58066937       1.10648563       9.96457716       0.00000000      -0.00000000      -0.00247325
Mg       4.74200801       3.31945703      12.16704005       0.00000000      -0.00000000       0.00247325
Mg       4.74200801       1.10648563       9.96457716       0.00000000      -0.00000000      -0.00247325
Mg       7.90334666       3.31945703      12.16704005      -0.00000000       0.00000000       0.00247325
Mg       7.90334666       1.10648563       9.96457716      -0.00000000      -0.00000000      -0.00247325
Mg       1.58066937       7.74539969      12.16704005      -0.00000000      -0.00000000       0.00247325
Mg       1.58066937       5.53242842       9.96457716      -0.00000000      -0.00000000      -0.00247325
Mg       4.74200801       7.74539969      12.16704005       0.00000000      -0.00000000       0.00247325
Mg       4.74200801       5.53242842       9.96457716      -0.00000000      -0.00000000      -0.00247325
Mg       7.90334666       7.74539969      12.16704005      -0.00000000      -0.00000000       0.00247325
Mg       7.90334666       5.53242842       9.96457716       0.00000000      -0.00000000      -0.00247325
Mg       1.58066937      12.17134248      12.16704005      -0.00000000      -0.00000000       0.00247325
Mg       1.58066937       9.95837108       9.96457716      -0.00000000      -0.00000000      -0.00247325
Mg       4.74200801      12.17134248      12.16704005      -0.00000000       0.00000000       0.00247325
Mg       4.74200801       9.95837108       9.96457716       0.00000000       0.00000000      -0.00247325
Mg       7.90334666      12.17134248      12.16704005      -0.00000000      -0.00000000       0.00247325
Mg       7.90334666       9.95837108       9.96457716      -0.00000000       0.00000000      -0.00247325
Cu       0.00000000       3.31945703       1.09740624      -0.00000000       0.00000000       0.00408677
Cu       0.00000000       1.10648563       3.32891715      -0.00000000       0.00000000      -0.00408677
Cu       3.16133865       3.31945703       1.09740624      -0.00000000       0.00000000       0.00408677
Cu       3.16133865       1.10648563       3.32891715      -0.00000000       0.00000000      -0.00408677
Cu       6.32267738       3.31945703       1.09740624      -0.00000000       0.00000000       0.00408677
Cu       6.32267738       1.10648563       3.32891715      -0.00000000       0.00000000      -0.00408677
Cu       0.00000000       7.74539969       1.09740624      -0.00000000       0.00000000       0.00408677