120
Lattice="16.0232175 0.0 0.0 -6.409287 11.10121072 0.0 0.0 0.0 15.3984" Properties=species:S:1:pos:R:3:forces:R:3 energy=-180.58149354 stress="0.0014215748753484746 0.0005860942906101854 -2.0659395206673585e-09 0.0005860942906101854 0.0044199575240737405 6.484927981792706e-09 -2.0659395206673585e-09 6.484927981792706e-09 0.0006337827720223341" free_energy=-180.58123046 pbc="T T T"
Mg       0.00000000       0.00000000       0.00000000       0.00037070      -0.00105727      -0.00000754
Mg       0.00000003       1.85020182       2.56640005      -0.00160329       0.00544765      -0.00000109
Mg       3.20464350       0.00000000       0.00000000       0.00012097      -0.00215133      -0.00000585
Mg       3.20464353       1.85020182       2.56640005       0.00326450       0.00307974      -0.00000013
Mg       6.40928700       0.00000000       0.00000000       0.00145752      -0.00301836      -0.00000526
Mg       6.40928703       1.85020182       2.56640005      -0.00405364      -0.00062914       0.00000104
Mg       9.61393050       0.00000000       0.00000000      -0.00098635       0.00088890      -0.00000776
Mg       9.61393053       1.85020182       2.56640005       0.00299064       0.00023717      -0.00000019
Mg      12.81857400       0.00000000       0.00000000       0.00067452      -0.00002960      -0.00000722
Mg      12.81857403       1.85020182       2.56640005      -0.00407957       0.00236252       0.00000037
Mg      -1.60232175       2.77530268       0.00000000       0.00037201      -0.00105609      -0.00000661
Mg      -1.60232172       4.62550450       2.56640005      -0.00160457       0.00544761      -0.00000007
Mg       1.60232175       2.77530268       0.00000000       0.00012079      -0.00215026      -0.00000709
Mg       1.60232178       4.62550450       2.56640005       0.00326294       0.00308018      -0.00000012
Mg       4.80696525       2.77530268       0.00000000       0.00145828      -0.00302065      -0.00000684
Mg       4.80696528       4.62550450       2.56640005      -0.00405369      -0.00062927       0.00000100
Mg       8.01160875       2.77530268       0.00000000      -0.00098597       0.00088938      -0.00000610
Mg       8.01160878       4.62550450       2.56640005       0.00299201       0.00023755      -0.00000115
Mg      11.21625225       2.77530268       0.00000000       0.00067354      -0.00003013      -0.00000671
Mg      11.21625228       4.62550450       2.56640005      -0.00408050       0.00236128       0.00000154
Mg      -3.20464350       5.55060536       0.00000000       0.00037038      -0.00105685      -0.00000625
Mg      -3.20464347       7.40080718       2.56640005      -0.00160272       0.00544678      -0.00000030
Mg       0.00000000       5.55060536       0.00000000       0.00012014      -0.00215079      -0.00000579
Mg       0.00000003       7.40080718       2.56640005       0.00326529       0.00308013      -0.00000024
Mg       3.20464350       5.55060536       0.00000000       0.00145854      -0.00301881      -0.00000623
Mg       3.20464353       7.40080718       2.56640005      -0.00405394      -0.00062902      -0.00000175
Mg       6.40928700       5.55060536       0.00000000      -0.00098627       0.00088952      -0.00000584
Mg       6.40928703       7.40080718       2.56640005       0.00299003       0.00023725      -0.00000088
Mg       9.61393050       5.55060536       0.00000000       0.00067353      -0.00003027      -0.00000562
Mg       9.61393053       7.40080718       2.56640005      -0.00407960       0.00236244       0.00000066
Mg      -4.80696525       8.32590804       0.00000000       0.00037135      -0.00105638      -0.00000638
Mg      -4.80696522      10.17610986       2.56640005      -0.00160384       0.00544657      -0.00000022
Mg      -1.60232175       8.32590804       0.00000000       0.00012005      -0.00215090      -0.00000656
Mg      -1.60232172      10.17610986       2.56640005       0.00326585       0.00307939      -0.00000021
Mg       1.60232175       8.32590804       0.00000000       0.00145728      -0.00301887      -0.00000663
Mg       1.60232178      10.17610986       2.56640005      -0.00405406      -0.00062843       0.00000024
Mg       4.80696525       8.32590804       0.00000000      -0.00098668       0.00089064      -0.00000717
Mg       4.80696528      10.17610986       2.56640005       0.00299041       0.00023803      -0.00000153
Mg       8.01160875       8.32590804       0.00000000       0.00067271      -0.00003011      -0.00000591
Mg       8.01160878      10.17610986       2.56640005      -0.00408011       0.00236184      -0.00000012
Mg       0.00000000       0.00000000       5.13279995       0.00037081      -0.00105729       0.00000635
Mg       0.00000003       1.85020182       7.69920000      -0.00160382       0.00544734       0.00000613
Mg       3.20464350       0.00000000       5.13279995       0.00012079      -0.00215180       0.00000614
Mg       3.20464353       1.85020182       7.69920000       0.00326464       0.00307817       0.00000649
Mg       6.40928700       0.00000000       5.13279995       0.00145790      -0.00301907       0.00000702
Mg       6.40928703       1.85020182       7.69920000      -0.00405476      -0.00062948       0.00000433
Mg       9.61393050       0.00000000       5.13279995      -0.00098659       0.00088969       0.00000603
Mg       9.61393053       1.85020182       7.69920000       0.00299187       0.00023473       0.00000373
Mg      12.81857400       0.00000000       5.13279995       0.00067239      -0.00002992       0.00000627
Mg      12.81857403       1.85020182       7.69920000      -0.00407946       0.00236162       0.00000542
Mg      -1.60232175       2.77530268       5.13279995       0.00037087      -0.00105767       0.00000590
Mg      -1.60232172       4.62550450       7.69920000      -0.00160366       0.00544664       0.00000713
Mg       1.60232175       2.77530268       5.13279995       0.00012047      -0.00215243       0.00000613
Mg       1.60232178       4.62550450       7.69920000       0.00326450       0.00307873       0.00000675
Mg       4.80696525       2.77530268       5.13279995       0.00145687      -0.00301913       0.00000744
Mg       4.80696528       4.62550450       7.69920000      -0.00405429      -0.00062977       0.00000502
Mg       8.01160875       2.77530268       5.13279995      -0.00098685       0.00088899       0.00000558
Mg       8.01160878       4.62550450       7.69920000       0.00299196       0.00023605       0.00000388
Mg      11.21625225       2.77530268       5.13279995       0.00067373      -0.00003004       0.00000750
Mg      11.21625228       4.62550450       7.69920000      -0.00407964       0.00236265       0.00000647
Mg      -3.20464350       5.55060536       5.13279995       0.00037037      -0.00105673       0.00000668
Mg      -3.20464347       7.40080718       7.69920000      -0.00160332       0.00544648       0.00000687
Mg       0.00000000       5.55060536       5.13279995       0.00012035      -0.00215194       0.00000679
Mg       0.00000003       7.40080718       7.69920000       0.00326506       0.00307869       0.00000681
Mg       3.20464350       5.55060536       5.13279995       0.00145627      -0.00301786       0.00000724
Mg       3.20464353       7.40080718       7.69920000      -0.00405391      -0.00062994       0.00000540
Mg       6.40928700       5.55060536       5.13279995      -0.00098740       0.00088870       0.00000687
Mg       6.40928703       7.40080718       7.69920000       0.00299187       0.00023730       0.00000470
Mg       9.61393050       5.55060536       5.13279995       0.00067305      -0.00002998       0.00000736
Mg       9.61393053       7.40080718       7.69920000      -0.00407994       0.00236207       0.00000634
Mg      -4.80696525       8.32590804       5.13279995       0.00037143      -0.00105636       0.00000735
Mg      -4.80696522      10.17610986       7.69920000      -0.00160292       0.00544738       0.00000658
Mg      -1.60232175       8.32590804       5.13279995       0.00012085      -0.00215241       0.00000684
Mg      -1.60232172      10.17610986       7.69920000       0.00326496       0.00307774       0.00000667
Mg       1.60232175       8.32590804       5.13279995       0.00145740      -0.00301882       0.00000776
Mg       1.60232178      10.17610986       7.69920000      -0.00405432      -0.00062981       0.00000419
Mg       4.80696525       8.32590804       5.13279995      -0.00098705       0.00088978       0.00000632
Mg       4.80696528      10.17610986       7.69920000       0.00299158       0.00023721       0.00000396
Mg       8.01160875       8.32590804       5.13279995       0.00067277      -0.00002917       0.00000746
Mg       8.01160878      10.17610986       7.69920000      -0.00408029       0.00236319       0.00000737
Mg       0.00000000       0.00000000      10.26560005       0.00037108      -0.00105647       0.00000035
Mg       0.00000003       1.85020182      12.83199995      -0.00160373       0.00544674      -0.00000870
Mg       3.20464350       0.00000000      10.26560005       0.00011959      -0.00215130      -0.00000007
Mg       3.20464353       1.85020182      12.83199995       0.00326348       0.00307853      -0.00000606
Mg       6.40928700       0.00000000      10.26560005       0.00145573      -0.00302024       0.00000003
Mg       6.40928703       1.85020182      12.83199995      -0.00405412      -0.00062960      -0.00000551
Mg       9.61393050       0.00000000      10.26560005      -0.00098569       0.00088988       0.00000032
Mg       9.61393053       1.85020182      12.83199995       0.00299182       0.00023720      -0.00000590
Mg      12.81857400       0.00000000      10.26560005       0.00067411      -0.00002889      -0.00000028
Mg      12.81857403       1.85020182      12.83199995      -0.00407936       0.00236277      -0.00000646
Mg      -1.60232175       2.77530268      10.26560005       0.00037016      -0.00105513       0.00000091
Mg      -1.60232172       4.62550450      12.83199995      -0.00160446       0.00544698      -0.00000730
Mg       1.60232175       2.77530268      10.26560005       0.00011926      -0.00215215       0.00000035
Mg       1.60232178       4.62550450      12.83199995       0.00326415       0.00307801      -0.00000607
Mg       4.80696525       2.77530268      10.26560005       0.00145523      -0.00301933       0.00000076
Mg       4.80696528       4.62550450      12.83199995      -0.00405330      -0.00062869      -0.00000574
Mg       8.01160875       2.77530268      10.26560005      -0.00098671       0.00088991       0.00000056
Mg       8.01160878       4.62550450      12.83199995       0.00299276       0.00023695      -0.00000346
Mg      11.21625225       2.77530268      10.26560005       0.00067449      -0.00002791      -0.00000012
Mg      11.21625228       4.62550450      12.83199995      -0.00408029       0.00236304      -0.00000554
Mg      -3.20464350       5.55060536      10.26560005       0.00037061      -0.00105642      -0.00000033
Mg      -3.20464347       7.40080718      12.83199995      -0.00160420       0.00544714      -0.00000741
Mg       0.00000000       5.55060536      10.26560005       0.00011880      -0.00215135      -0.00000004
Mg       0.00000003       7.40080718      12.83199995       0.00326446       0.00307891      -0.00000614
Mg       3.20464350       5.55060536      10.26560005       0.00145492      -0.00301933       0.00000126
Mg       3.20464353       7.40080718      12.83199995      -0.00405402      -0.00062805      -0.00000471
Mg       6.40928700       5.55060536      10.26560005      -0.00098630       0.00088991      -0.00000040
Mg       6.40928703       7.40080718      12.83199995       0.00299240       0.00023620      -0.00000490
Mg       9.61393050       5.55060536      10.26560005       0.00067415      -0.00002915       0.00000098
Mg       9.61393053       7.40080718      12.83199995      -0.00407999       0.00236278      -0.00000526
Mg      -4.80696525       8.32590804      10.26560005       0.00037298      -0.00105573      -0.00000027
Mg      -4.80696522      10.17610986      12.83199995      -0.00160341       0.00544661      -0.00000657
Mg      -1.60232175       8.32590804      10.26560005       0.00011946      -0.00215156      -0.00000056
Mg      -1.60232172      10.17610986      12.83199995       0.00326367       0.00307818      -0.00000544
Mg       1.60232175       8.32590804      10.26560005       0.00145638      -0.00301862       0.00000010
Mg       1.60232178      10.17610986      12.83199995      -0.00405456      -0.00062898      -0.00000460
Mg       4.80696525       8.32590804      10.26560005      -0.00098610       0.00088968       0.00000011
Mg       4.80696528      10.17610986      12.83199995       0.00299262       0.00023745      -0.00000541
Mg       8.01160875       8.32590804      10.26560005       0.00067448      -0.00002857       0.00000084
Mg       8.01160878      10.17610986      12.83199995      -0.00407884       0.00236234      -0.00000548
120
Lattice="16.0232175 0.0 0.0 -6.409287 11.10121072 0.0 0.0 0.0 15.3984" Properties=species:S:1:pos:R:3:forces:R:3 energy=-180.56579561 stress="0.001445781888168718 0.000551499365630988 -4.2358501003536805e-06 0.000551499365630988 0.0044275450957822395 3.7907056694956863e-06 -4.2358501003536805e-06 3.7907056694956863e-06 0.000651936969020588" free_energy=-180.5655251 pbc="T T T"
Mg       0.00372992       0.00102986       0.00011287      -0.01031927      -0.00308660      -0.00187073
Mg       0.00461908       1.85124445       2.56292756      -0.02182554      -0.00217461       0.00779827
Mg      -3.21113800      11.10104054      15.39592070       0.02414791       0.00016804       0.00176280
Mg       3.19880813       1.84442098       2.56792342       0.01570698       0.01234418      -0.00348945
Mg      -0.00132265      11.10010493       0.00578441       0.00352204       0.01274762      -0.02353388
Mg       6.39697687       1.85771512       2.56752660       0.03201375      -0.01400784      -0.00299892
Mg       3.20469128      11.09838846       0.01315762      -0.00369430       0.00759022      -0.03159357
Mg       9.60793811       1.84968073       2.56507256       0.01113367      -0.00786861       0.01006613
Mg       6.40697485      11.09468099      15.39549817       0.01171146       0.02508679       0.01291280
Mg      12.81384683       1.84687901       2.56200504       0.00475567       0.00836326       0.00151588
Mg      -1.60340095       2.78192544      15.39478138      -0.00009798      -0.01924024       0.01813265
Mg      -1.60003415       4.63515434       2.56967544      -0.01389728      -0.02388555      -0.01042932
Mg       1.61370291       2.77509253       0.00489176      -0.02198074      -0.00564996      -0.02016412
Mg       1.59626196       4.61561888       2.56554606       0.01355253       0.03583270       0.00735269
Mg       4.80785778       2.78492488       0.00632551       0.01080164      -0.04382040      -0.03919492
Mg       4.80622940       4.62353337       2.56365744      -0.00652600       0.00137518       0.02006178
Mg       8.01711317       2.77589249       0.00238321      -0.02380537       0.00347331      -0.00743163
Mg       8.02243051       4.62556589       2.56886795      -0.02815005       0.01065725      -0.00672830
Mg      11.21141529       2.78422117      15.39695224       0.01393732      -0.02310613       0.00384294
Mg      11.21142657       4.62032190       2.56650414       0.01319759       0.01700608      -0.00174228
Mg      12.81424969       5.55748112      15.39694362       0.00426285      -0.02059849       0.00549846
Mg      -3.20326861       7.40181562       2.56564969      -0.00857561       0.00354253      -0.00207202
Mg      -0.00327915       5.54121818       0.00410337       0.00986570       0.02213536      -0.00870328
Mg       0.00056818       7.40675943       2.56490610       0.00946409      -0.01604591       0.00407960
Mg       3.21218387       5.54084129      15.39571791      -0.02581561       0.03343390       0.00050356
Mg       3.20856470       7.39450314       2.56042439      -0.02025083       0.00285614       0.00344120
Mg       6.40600387       5.55262101      15.39576302       0.01507027       0.00200366      -0.00374079
Mg       6.40671675       7.38819288       2.56660316       0.01504245       0.02267569       0.00658864
Mg       9.61620750       5.56074643      15.38996799      -0.00765772      -0.02594722       0.02210510
Mg       9.62050249       7.40513244       2.56057668      -0.01725109      -0.00388922       0.01589992
Mg      11.21482814       8.32174142      15.38743911       0.00144857       0.01657914       0.02791245
Mg      -4.80540674      10.16669038       2.56999542      -0.01092971       0.02077148      -0.01411523
Mg      -1.60180702       8.33109663       0.00160913      -0.00433007      -0.00690583       0.00386676
Mg      -1.60000521      10.17691603       2.56661055      -0.01210198       0.00339046      -0.00906144
Mg       1.59765855       8.32384066       0.00282976       0.02098739      -0.00381333      -0.00618612
Mg       1.59627481      10.17643535       2.57041026       0.01039769      -0.00624212      -0.00946697
Mg       4.81089943       8.33182221       0.00158573      -0.01670975      -0.02144635      -0.01976549
Mg       4.80833953      10.16269028       2.57134540       0.00069846       0.02770318       0.00024840
Mg       8.01205378       8.32402738      15.39498802      -0.00362001       0.00665655       0.00731925
Mg       8.01139849      10.17774685       2.55944521      -0.00543718      -0.00286188       0.02372175
Mg      16.02070862       0.00055806       5.13813257      -0.00225841      -0.00557847      -0.02210626
Mg       0.00118178       1.84423514       7.69172777      -0.01031887       0.02139964       0.01731233
Mg       3.20547200       0.00174356       5.12561598      -0.00280894      -0.00034676       0.02898126
Mg       3.20236570       1.84907860       7.71099179       0.00707366      -0.00309002      -0.04600059
Mg      -0.00508891      11.09188393       5.12714365       0.02731475       0.01805712       0.02087251
Mg       6.41407977       1.85606848       7.69340266      -0.00889514      -0.03982708       0.01067911
Mg       3.20220868      11.09777867       5.12564539      -0.00099261       0.02164371       0.01563852
Mg       9.60705641       1.85337288       7.71028269       0.01963999       0.00572273      -0.02113029
Mg      12.81087311       0.00651219       5.14121779       0.01854654      -0.02662139      -0.02320177
Mg      12.81985913       1.84740787       7.70058447       0.00032547       0.02013888       0.01030773
Mg      14.41381621       2.77614471       5.12811837       0.01703641       0.00661704       0.00825930
Mg      -1.60183990       4.63552224       7.70338436      -0.01252877      -0.03388656      -0.01942088
Mg       1.60746655       2.77640880       5.13373217      -0.01196942       0.00209285       0.00679741
Mg       1.59601559       4.62940314       7.70180295       0.02576711      -0.01112437      -0.00848499
Mg       4.81580705       2.77027239       5.12825865      -0.03426248       0.01086114       0.01987415
Mg       4.81969781       4.61641372       7.70667931      -0.04831062       0.02842382      -0.02759510
Mg       8.01689301       2.77892423       5.13483777      -0.01137302      -0.01437076      -0.00760632
Mg       8.00602283       4.62405735       7.70097852       0.02533515       0.00289680       0.00537961
Mg      11.21219392       2.77460630       5.13735264      -0.00013694      -0.00020776      -0.00670798
Mg      11.21522930       4.62436563       7.70313737       0.00033091       0.00865640      -0.01129903
Mg      12.81662904       5.54910348       5.12823602      -0.00736330       0.00766600       0.01715491
Mg      -3.19944470       7.40312756       7.70535921      -0.01185101      -0.01133413      -0.02116284
Mg      -0.00568177       5.55833114       5.13757746       0.00970011      -0.02573776      -0.01672462
Mg      -0.00216336       7.40623834       7.68861237       0.01107012       0.01289481       0.03497714
Mg       3.19520358       5.55612044       5.12853552       0.02431926      -0.03380750       0.01496665
Mg       3.19686509       7.39342288       7.69755160       0.03186963       0.00313292       0.01675705
Mg       6.40429631       5.54568297       5.13960312       0.00001621       0.00995458      -0.01630648
Mg       6.42073286       7.40069206       7.70379765      -0.05049278       0.00924267      -0.00263561
Mg       9.61321324       5.55528685       5.13638793       0.00399797      -0.00009375      -0.00530570
Mg       9.60909418       7.40014788       7.70101932       0.01530900      -0.00359088      -0.01335328
Mg      -4.80183904       8.33211184       5.13606703      -0.01482436      -0.02758256      -0.00798374
Mg      -4.80146980      10.15987445       7.69505136      -0.00470380       0.04498797       0.00636874
Mg      -1.60220978       8.32573852       5.12877558      -0.00766050      -0.00083752       0.00435181
Mg      -1.59935380      10.17259256       7.69736744       0.01706385       0.02577098       0.00041549
Mg       1.60732218       8.32486830       5.13473337      -0.01116800       0.00127009      -0.01530341
Mg       1.62297500      10.17852449       7.69499562      -0.05804057      -0.00166772       0.01003685
Mg       4.79642806       8.32363729       5.13836077       0.02850317       0.00169800       0.00331856
Mg       4.79844269      10.18844220       7.70483289       0.03142588      -0.04046024      -0.01157265
Mg       8.00302880       8.32195823       5.13563911       0.01482888       0.01595064      -0.02336841
Mg       8.01808194      10.17228283       7.70138780      -0.02400829       0.00760353      -0.00649245
Mg      -6.40567639      11.09914934      10.26351788       0.00394686       0.01316686       0.00535649
Mg       0.00931369       1.85298490      12.83843479      -0.02015151      -0.00161406      -0.01535624
Mg      -3.19714652      11.09609772      10.26282896      -0.02405299       0.00276701       0.00567646
Mg       3.20431685       1.85118117      12.82114007       0.01402898       0.00037203       0.02135544
Mg       0.00468009      11.09702190      10.27700950      -0.00241180      -0.00077738      -0.06235107
Mg       6.41298804       1.84901433      12.81844766      -0.02245847       0.01303736       0.05473187
Mg       9.61790496       0.00212133      10.26392086      -0.00460483       0.00506717       0.02167924
Mg       9.61192471       1.85550409      12.83425458       0.00810493      -0.01880890       0.00253889
Mg       6.40688736      11.09474038      10.26343196       0.01447523       0.02506788       0.00934624
Mg      12.81887931       1.84645816      12.83880666       0.00458560       0.01258450      -0.01543833
Mg      14.41480907       2.78310617      10.27141018       0.01306267      -0.03387643      -0.01071804
Mg      -1.60876789       4.62911717      12.83270889       0.01021695       0.00168093      -0.00776550
Mg       1.59799824       2.77872096      10.25878580       0.00291218      -0.00813320       0.01686286
Mg       1.60498029       4.62411197      12.83285933      -0.01458441       0.01012913      -0.00954526
Mg       4.80609820       2.77124164      10.25460914       0.00459636      -0.00488155       0.02841613
Mg       4.80441073       4.62891502      12.82730036       0.01717071      -0.01037235       0.00799876
Mg       8.00211426       2.77190782      10.27219904       0.02608846       0.01581030      -0.01659881
Mg       8.01596104       4.62705834      12.83569988      -0.01866169      -0.00324224      -0.00384434
Mg      11.21611419       2.77922574      10.26867681      -0.00085119      -0.01671122      -0.00336412
Mg      11.20763596       4.62138429      12.82351882       0.02545922       0.02412524       0.01697501
Mg      12.81582060       5.55137545      10.26356977      -0.00129303       0.01048655       0.01446198
Mg      -3.19929040       7.40276066      12.84311174      -0.02091441      -0.00563441      -0.04246257
Mg      -0.00154727       5.54803166      10.25343763       0.01177437       0.02765184       0.04475665
Mg       0.00076434       7.40411423      12.84463002      -0.00144257      -0.01214029      -0.03771649
Mg       3.21965613       5.55191863      10.26852760      -0.03928511      -0.00903942      -0.01724068
Mg       3.19721978       7.40042619      12.82868129       0.02510574       0.00666930       0.02585627
Mg       6.41410086       5.54994151      10.26933940      -0.00101701       0.00106189      -0.00161546
Mg       6.41807942       7.41217627      12.82262586      -0.03347318      -0.02530298       0.02727827
Mg       9.61158012       5.55319405      10.26370697      -0.00402692      -0.01358302      -0.00109700
Mg       9.60173468       7.39847249      12.82995319       0.03878825       0.01317468      -0.01288085
Mg      11.20892563       8.32319546      10.25716265       0.01811719       0.00077718       0.04160499
Mg      -4.80131290      10.16940895      12.83679362      -0.01119632       0.01430478      -0.02684353
Mg      -1.60570396       8.32995976      10.26605692       0.01531116      -0.02325523       0.00745176
Mg      -1.59598896      10.17540094      12.82761787      -0.01062124       0.00861144       0.02257200
Mg       1.60730180       8.32864915      10.26939683      -0.01455867      -0.01910438      -0.01958106
Mg       1.60498529      10.18001172      12.82462612       0.01078606      -0.00594449       0.03999563
Mg       4.80944904       8.32419424      10.27196483      -0.01155853       0.00926131      -0.02478938
Mg       4.81320642      10.18543333      12.83558131      -0.02271527      -0.01647489      -0.00423490
Mg       8.00986001       8.32630347      10.26387204       0.00880157       0.00056927      -0.00338782
Mg       8.01414811      10.17196945      12.82443656       0.00633783       0.02684070       0.01500388
120
Lattice="16.0232175 0.0 0.0 -6.409287 11.10121072 0.0 0.0 0.0 15.3984" Properties=species:S:1:pos:R:3:forces:R:3 energy=-180.51694337 stress="0.0014270441849653036 0.0005311242274744346 -8.105311131999761e-06 0.0005311242274744346 0.004350656388007632 -6.679613134447256e-06 -8.105311131999761e-06 -6.679613134447256e-06 0.000596357341379076" free_energy=-180.51665273 pbc="T T T"
Mg       0.00745564       0.00205839       0.00022497      -0.02684059      -0.00724703      -0.00367715
Mg       0.00922941       1.85228608       2.55945814      -0.04331600      -0.01155728       0.01676610
Mg      -3.21762282      11.10087025      15.39344218       0.04939722       0.00323305       0.00346458
Mg       3.19297917       1.83864480       2.56944539       0.02782745       0.01875904      -0.00834964
Mg      -0.00264380      11.09900402       0.01155958       0.00454077       0.02819112      -0.04513778
Mg       6.38467944       1.86522276       2.56865191       0.07124161      -0.02949400      -0.00642209
Mg       3.20473784      11.09556886       0.02630278      -0.00424973       0.01275174      -0.06113938
Mg       9.60195016       1.84915631       2.56374906       0.02466034      -0.01633967       0.02011261
Mg       6.40466725      11.08816114      15.39260142       0.02381123       0.04525026       0.02227329
Mg      12.80912146       1.84355941       2.55761064       0.01049741       0.01123220       0.00676364
Mg      -1.60448014       2.78854043      15.39116984      -0.00048979      -0.03529047       0.03715097
Mg      -1.59775190       4.64479452       2.57294668      -0.03005284      -0.04951538      -0.01981409
Mg       1.62507555       2.77487995       0.00977552      -0.04074052      -0.00948249      -0.03898954
Mg       1.59020746       4.60574735       2.56469499       0.02388231       0.06084349       0.01186077
Mg       4.80875495       2.79452931       0.01263562       0.02045662      -0.07971103      -0.07578058
Mg       4.80549108       4.62156257       2.56092299      -0.00728464       0.00238234       0.03937955
Mg       8.02260814       2.77648340       0.00476365      -0.05073129       0.00258913      -0.01439677
Mg       8.03324106       4.62563139       2.57133339      -0.05921999       0.02189664      -0.01524284
Mg      11.20658410       2.79313023      15.39550587       0.02147900      -0.03784327       0.00290714
Mg      11.20660614       4.61514596       2.56660778       0.02781769       0.02947368      -0.00461467
Mg      12.80992697       5.56434855      15.39548955       0.01318343      -0.04124523       0.01679066
Mg      -3.20189709       7.40282538       2.56489871      -0.01331767       0.00149510      -0.00497331
Mg      -0.00655410       5.53183954       0.00820319       0.02328809       0.04621294      -0.01749302
Mg       0.00114044       7.41270513       2.56341399       0.01293594      -0.03476750       0.01139463
Mg       3.21971394       5.53109032      15.39303612      -0.05698116       0.07113520       0.00313319
Mg       3.21247776       7.38820009       2.55445028      -0.03993204       0.01205955       0.00938258
Mg       6.40272677       5.55463732      15.39312466       0.03313441       0.00141636      -0.00555204
Mg       6.40415278       7.37558734       2.56680888       0.03487649       0.04164852       0.01247222
Mg       9.61848138       5.57087706      15.38154476      -0.01908833      -0.04816592       0.04354874
Mg       9.62706755       7.40945603       2.55475963      -0.03288520      -0.01569811       0.03864695
Mg      11.21340448       8.31758124      15.37648931       0.00350938       0.03379587       0.06156723
Mg      -4.80385239      10.15727888       2.57358525      -0.01540262       0.03863812      -0.02855308
Mg      -1.60129383       8.33628234       0.00321996      -0.00908704      -0.01561069       0.00771087
Mg      -1.59769341      10.17772342       2.56681750      -0.03037256       0.00220910      -0.01958838