120
Lattice="16.102935 0.0 0.0 -6.441174 11.15644063 0.0 0.0 0.0 15.552384" Properties=species:S:1:pos:R:3:forces:R:3 energy=-180.54592064 stress="0.005285946761457075 0.0002469721408133033 2.22197724881444e-09 0.0002469721408133033 0.008357440001411361 -3.3017583275922437e-09 2.22197724881444e-09 -3.3017583275922437e-09 0.005839138855570549" free_energy=-180.54309047 pbc="T T T"
Mg       0.00000000       0.00000000       0.00000000       0.00007764      -0.00078700       0.00000576
Mg       0.00000003       1.85940681       2.59206405       0.00054188       0.00239016       0.00000601
Mg       3.22058700       0.00000000       0.00000000       0.00055636      -0.00453839       0.00000521
Mg       3.22058703       1.85940681       2.59206405      -0.00100243       0.00460069       0.00000718
Mg       6.44117400       0.00000000       0.00000000       0.00151471      -0.00275390       0.00000707
Mg       6.44117403       1.85940681       2.59206405      -0.00266904      -0.00165882       0.00000601
Mg       9.66176100       0.00000000       0.00000000      -0.00153169       0.00102114       0.00000656
Mg       9.66176103       1.85940681       2.59206405      -0.00103625       0.00367452       0.00000756
Mg      12.88234800       0.00000000       0.00000000      -0.00021754       0.00268859       0.00000398
Mg      12.88234803       1.85940681       2.59206405      -0.00432960       0.00532099       0.00000868
Mg      -1.61029350       2.78911016       0.00000000       0.00007834      -0.00078707       0.00000579
Mg      -1.61029347       4.64851697       2.59206405       0.00054278       0.00238895       0.00000832
Mg       1.61029350       2.78911016       0.00000000       0.00055729      -0.00453967       0.00000496
Mg       1.61029353       4.64851697       2.59206405      -0.00100206       0.00459979       0.00000707
Mg       4.83088050       2.78911016       0.00000000       0.00151487      -0.00275262       0.00000728
Mg       4.83088053       4.64851697       2.59206405      -0.00266941      -0.00165767       0.00000499
Mg       8.05146750       2.78911016       0.00000000      -0.00153172       0.00102194       0.00000648
Mg       8.05146753       4.64851697       2.59206405      -0.00103488       0.00367488       0.00000733
Mg      11.27205450       2.78911016       0.00000000      -0.00021879       0.00268774       0.00000629
Mg      11.27205453       4.64851697       2.59206405      -0.00433013       0.00532127       0.00001004
Mg      -3.22058700       5.57822032       0.00000000       0.00007868      -0.00078865       0.00000594
Mg      -3.22058697       7.43762712       2.59206405       0.00054179       0.00238950       0.00000733
Mg       0.00000000       5.57822032       0.00000000       0.00055666      -0.00454055       0.00000580
Mg       0.00000003       7.43762712       2.59206405      -0.00100080       0.00459973       0.00000621
Mg       3.22058700       5.57822032       0.00000000       0.00151459      -0.00275367       0.00000676
Mg       3.22058703       7.43762712       2.59206405      -0.00267137      -0.00165911       0.00000479
Mg       6.44117400       5.57822032       0.00000000      -0.00153185       0.00102282       0.00000692
Mg       6.44117403       7.43762712       2.59206405      -0.00103622       0.00367431       0.00000682
Mg       9.66176100       5.57822032       0.00000000      -0.00021764       0.00268847       0.00000633
Mg       9.66176103       7.43762712       2.59206405      -0.00432966       0.00532128       0.00000768
Mg      -4.83088050       8.36733047       0.00000000       0.00007899      -0.00078622       0.00000471
Mg      -4.83088047      10.22673728       2.59206405       0.00054159       0.00238820       0.00000704
Mg      -1.61029350       8.36733047       0.00000000       0.00055628      -0.00453846       0.00000540
Mg      -1.61029347      10.22673728       2.59206405      -0.00099926       0.00459984       0.00000821
Mg       1.61029350       8.36733047       0.00000000       0.00151609      -0.00275566       0.00000555
Mg       1.61029353      10.22673728       2.59206405      -0.00266915      -0.00166064       0.00000806
Mg       4.83088050       8.36733047       0.00000000      -0.00153148       0.00102121       0.00000422
Mg       4.83088053      10.22673728       2.59206405      -0.00103726       0.00367332       0.00000645
Mg       8.05146750       8.36733047       0.00000000      -0.00021817       0.00268793       0.00000611
Mg       8.05146753      10.22673728       2.59206405      -0.00432925       0.00532165       0.00000847
Mg       0.00000000       0.00000000       5.18412795       0.00007759      -0.00078594       0.00000123
Mg       0.00000003       1.85940681       7.77619200       0.00054401       0.00238987      -0.00000511
Mg       3.22058700       0.00000000       5.18412795       0.00055532      -0.00453928       0.00000208
Mg       3.22058703       1.85940681       7.77619200      -0.00100053       0.00460057      -0.00000533
Mg       6.44117400       0.00000000       5.18412795       0.00151517      -0.00275344       0.00000230
Mg       6.44117403       1.85940681       7.77619200      -0.00266876      -0.00166024      -0.00000498
Mg       9.66176100       0.00000000       5.18412795      -0.00153175       0.00102224       0.00000204
Mg       9.66176103       1.85940681       7.77619200      -0.00103504       0.00367493      -0.00000697
Mg      12.88234800       0.00000000       5.18412795      -0.00021782       0.00268856       0.00000136
Mg      12.88234803       1.85940681       7.77619200      -0.00433082       0.00532037      -0.00000689
Mg      -1.61029350       2.78911016       5.18412795       0.00007801      -0.00078773       0.00000103
Mg      -1.61029347       4.64851697       7.77619200       0.00054293       0.00238898      -0.00000620
Mg       1.61029350       2.78911016       5.18412795       0.00055644      -0.00454038       0.00000224
Mg       1.61029353       4.64851697       7.77619200      -0.00100242       0.00460009      -0.00000526
Mg       4.83088050       2.78911016       5.18412795       0.00151522      -0.00275145       0.00000097
Mg       4.83088053       4.64851697       7.77619200      -0.00266999      -0.00165897      -0.00000515
Mg       8.05146750       2.78911016       5.18412795      -0.00153034       0.00102246       0.00000073
Mg       8.05146753       4.64851697       7.77619200      -0.00103540       0.00367366      -0.00000807
Mg      11.27205450       2.78911016       5.18412795      -0.00021718       0.00268921       0.00000141
Mg      11.27205453       4.64851697       7.77619200      -0.00432834       0.00532154      -0.00000643
Mg      -3.22058700       5.57822032       5.18412795       0.00007909      -0.00078900       0.00000061
Mg      -3.22058697       7.43762712       7.77619200       0.00054296       0.00238980      -0.00000647
Mg       0.00000000       5.57822032       5.18412795       0.00055681      -0.00454072      -0.00000015
Mg       0.00000003       7.43762712       7.77619200      -0.00100099       0.00460045      -0.00000595
Mg       3.22058700       5.57822032       5.18412795       0.00151573      -0.00275184       0.00000011
Mg       3.22058703       7.43762712       7.77619200      -0.00267134      -0.00165990      -0.00000608
Mg       6.44117400       5.57822032       5.18412795      -0.00153031       0.00102192       0.00000127
Mg       6.44117403       7.43762712       7.77619200      -0.00103823       0.00367445      -0.00000653
Mg       9.66176100       5.57822032       5.18412795      -0.00021628       0.00268856       0.00000180
Mg       9.66176103       7.43762712       7.77619200      -0.00433005       0.00532197      -0.00000552
Mg      -4.83088050       8.36733047       5.18412795       0.00007756      -0.00078744       0.00000115
Mg      -4.83088047      10.22673728       7.77619200       0.00054280       0.00238821      -0.00000601
Mg      -1.61029350       8.36733047       5.18412795       0.00055575      -0.00454088       0.00000165
Mg      -1.61029347      10.22673728       7.77619200      -0.00100115       0.00459853      -0.00000387
Mg       1.61029350       8.36733047       5.18412795       0.00151377      -0.00275417       0.00000073
Mg       1.61029353      10.22673728       7.77619200      -0.00266950      -0.00165923      -0.00000454
Mg       4.83088050       8.36733047       5.18412795      -0.00153065       0.00102202      -0.00000002
Mg       4.83088053      10.22673728       7.77619200      -0.00103630       0.00367423      -0.00000746
Mg       8.05146750       8.36733047       5.18412795      -0.00021853       0.00268893       0.00000225
Mg       8.05146753      10.22673728       7.77619200      -0.00433011       0.00532112      -0.00000535
Mg       0.00000000       0.00000000      10.36825605       0.00007785      -0.00078835      -0.00000881
Mg       0.00000003       1.85940681      12.96031995       0.00054139       0.00239090      -0.00000132
Mg       3.22058700       0.00000000      10.36825605       0.00055545      -0.00453897      -0.00000564
Mg       3.22058703       1.85940681      12.96031995      -0.00100198       0.00460224      -0.00000210
Mg       6.44117400       0.00000000      10.36825605       0.00151546      -0.00275413      -0.00000814
Mg       6.44117403       1.85940681      12.96031995      -0.00266939      -0.00165783      -0.00000288
Mg       9.66176100       0.00000000      10.36825605      -0.00153067       0.00102286      -0.00000851
Mg       9.66176103       1.85940681      12.96031995      -0.00103674       0.00367494      -0.00000218
Mg      12.88234800       0.00000000      10.36825605      -0.00021894       0.00268804      -0.00000816
Mg      12.88234803       1.85940681      12.96031995      -0.00433010       0.00532204      -0.00000265
Mg      -1.61029350       2.78911016      10.36825605       0.00007939      -0.00078813      -0.00000768
Mg      -1.61029347       4.64851697      12.96031995       0.00054223       0.00238963      -0.00000239
Mg       1.61029350       2.78911016      10.36825605       0.00055741      -0.00454054      -0.00000750
Mg       1.61029353       4.64851697      12.96031995      -0.00100262       0.00460091      -0.00000169
Mg       4.83088050       2.78911016      10.36825605       0.00151410      -0.00275355      -0.00000681
Mg       4.83088053       4.64851697      12.96031995      -0.00267191      -0.00165833      -0.00000252
Mg       8.05146750       2.78911016      10.36825605      -0.00153012       0.00102221      -0.00000963
Mg       8.05146753       4.64851697      12.96031995      -0.00103617       0.00367374      -0.00000261
Mg      11.27205450       2.78911016      10.36825605      -0.00021814       0.00268646      -0.00000706
Mg      11.27205453       4.64851697      12.96031995      -0.00432928       0.00532168      -0.00000247
Mg      -3.22058700       5.57822032      10.36825605       0.00007963      -0.00078795      -0.00000706
Mg      -3.22058697       7.43762712      12.96031995       0.00054520       0.00238926      -0.00000179
Mg       0.00000000       5.57822032      10.36825605       0.00055669      -0.00454089      -0.00000656
Mg       0.00000003       7.43762712      12.96031995      -0.00099997       0.00460077      -0.00000140
Mg       3.22058700       5.57822032      10.36825605       0.00151501      -0.00275190      -0.00000682
Mg       3.22058703       7.43762712      12.96031995      -0.00267002      -0.00165969      -0.00000183
Mg       6.44117400       5.57822032      10.36825605      -0.00153117       0.00102241      -0.00000799
Mg       6.44117403       7.43762712      12.96031995      -0.00103666       0.00367492      -0.00000199
Mg       9.66176100       5.57822032      10.36825605      -0.00021735       0.00268648      -0.00000890
Mg       9.66176103       7.43762712      12.96031995      -0.00432849       0.00532143       0.00000020
Mg      -4.83088050       8.36733047      10.36825605       0.00007850      -0.00078848      -0.00000659
Mg      -4.83088047      10.22673728      12.96031995       0.00054216       0.00239166      -0.00000131
Mg      -1.61029350       8.36733047      10.36825605       0.00055662      -0.00454028      -0.00000716
Mg      -1.61029347      10.22673728      12.96031995      -0.00100229       0.00460130      -0.00000262
Mg       1.61029350       8.36733047      10.36825605       0.00151601      -0.00275353      -0.00000588
Mg       1.61029353      10.22673728      12.96031995      -0.00267147      -0.00166038      -0.00000047
Mg       4.83088050       8.36733047      10.36825605      -0.00153252       0.00102202      -0.00000867
Mg       4.83088053      10.22673728      12.96031995      -0.00103846       0.00367363      -0.00000191
Mg       8.05146750       8.36733047      10.36825605      -0.00021964       0.00268734      -0.00000801
Mg       8.05146753      10.22673728      12.96031995      -0.00433153       0.00532186      -0.00000257
120
Lattice="16.102935 0.0 0.0 -6.441174 11.15644063 0.0 0.0 0.0 15.552384" Properties=species:S:1:pos:R:3:forces:R:3 energy=-180.53059993 stress="0.005311485500113472 0.0002567653994317978 9.026657743126144e-07 0.0002567653994317978 0.0083505731180371 4.700773873631598e-06 9.026657743126144e-07 4.700773873631598e-06 0.005849475587354671" free_energy=-180.52778631 pbc="T T T"
Mg       0.00196327       0.00416247      15.54797692      -0.01151243      -0.01744028      -0.00744712
Mg      -0.00960286       1.85737254       2.59539506       0.03417816       0.01924826      -0.01591239
Mg       3.21104878       0.00083696      15.55066562       0.02333764      -0.01037787      -0.01503325
Mg       3.21759269       1.85514114       2.58466998       0.00319809       0.02910165       0.01603592
Mg      -0.00810464      11.15421804      15.54857367       0.01676093       0.00606394       0.00492919
Mg       6.43923118       1.86090768       2.59531746      -0.00218672       0.00034782      -0.00987819
Mg       3.21654027      11.15092611       0.00210066       0.00462995       0.01910567       0.00933483
Mg       9.66227929       1.86130943       2.59295349       0.00330220      -0.00348545      -0.00063702
Mg       6.43930084      11.14701745       0.00050188      -0.00173580       0.02489270      -0.01539423
Mg      12.88910798       1.85332220       2.59051535      -0.03648763       0.02114116       0.00391388
Mg      -1.60631740       2.78343856       0.00404098      -0.01715369       0.02041967      -0.02520486
Mg      -1.61294240       4.65297118       2.59094444      -0.00685847      -0.00744775      -0.00581673
Mg       1.60363825       2.79688966      15.55011257       0.01368693      -0.01523406       0.01204727
Mg       1.60874691       4.65068790       2.59196576      -0.00285877      -0.00808941      -0.00452535
Mg       4.84028542       2.78823382      15.54964958      -0.02453462      -0.00380585       0.00219968
Mg       4.82920161       4.65121660       2.59018859       0.00204714      -0.01125024       0.00338634
Mg       8.05286791       2.79516543      15.54897398      -0.00105040      -0.02210095       0.01146651
Mg       8.05362616       4.65825230       2.59992687       0.00447496      -0.02343268      -0.01126960
Mg      11.27565074       2.78947196      15.55008007      -0.00587497      -0.00933337       0.00612936
Mg      11.26900286       4.65120065       2.59300901       0.00803440       0.00050852       0.00683114
Mg      12.87626009       5.58056518      15.54982346       0.01931173      -0.01107114       0.00250710
Mg      -3.21568726       7.43827911       2.58809524      -0.01940393      -0.00077982       0.01823561
Mg      -0.00350670       5.58037596       0.00298155       0.01371503      -0.00260635      -0.00501834
Mg      -0.00576305       7.43883816       2.59951722       0.01841406       0.00796434      -0.01101034
Mg       3.22926197       5.57174289       0.00034169      -0.01668773       0.01778271      -0.00612238
Mg       3.21647930       7.43025249       2.59612882       0.00342258       0.02280953      -0.01810495
Mg       6.45132320       5.57083252       0.00450801      -0.02394894       0.01951526      -0.01970087
Mg       6.43885640       7.44094996       2.58838638       0.00084409      -0.00491902       0.01217226
Mg       9.66315960       5.57910937      15.55224605      -0.00106386      -0.00394148       0.00895024
Mg       9.65803185       7.44570450       2.58823521       0.00479306       0.00456762       0.01744088
Mg      11.27303668       8.36504273       0.00613682       0.00458684       0.01294734      -0.01837025
Mg      -4.82716868      10.23551673       2.58386592      -0.02316581      -0.01852818       0.02771020
Mg      -1.59370397       8.36102184      15.55148974      -0.04710597       0.01338388      -0.00807366
Mg      -1.61902319      10.22362798       2.58790923       0.01687387       0.01322700      -0.00281260
Mg       1.61194505       8.37278173      15.55151571       0.00051925      -0.02745464       0.01191478
Mg       1.60031950      10.23001817       2.59891099       0.02532725      -0.00807604      -0.02372993
Mg       4.82995239       8.36907077      15.55025783      -0.00597598      -0.01696329       0.00259848
Mg       4.83701936      10.22319779       2.59439287      -0.03092718       0.01136350       0.01015127
Mg       8.04343710       8.35926080       0.00357332       0.02030473       0.01555788      -0.01422740
Mg       8.04453441      10.24126743       2.58291754       0.01848253      -0.04141229       0.02856501
Mg      16.09849146       0.00112446       5.18059476       0.01414058      -0.01272492       0.01307331
Mg       0.00424341       1.87348468       7.77918723      -0.01854267      -0.03900670      -0.00882583
Mg       3.22908513       0.00180935       5.18333758      -0.02788733       0.00793530       0.00785832
Mg       3.22346946       1.85809258       7.78941215      -0.00373985       0.00396965      -0.03498356
Mg       0.00661418      11.14435977       5.17862038      -0.03044715       0.02895867       0.01981907
Mg       6.44124344       1.85971026       7.78234654       0.00263694       0.00472235      -0.02061547
Mg       3.21620797      11.15591460       5.19054844       0.02483838      -0.00784348      -0.02544118
Mg       9.66986545       1.84976352       7.77617909      -0.03156002       0.03320890       0.00731367
Mg       6.43965230      11.15606600       5.19582287       0.00727466      -0.00312787      -0.02490288
Mg      12.87777625       1.85784212       7.77281636       0.02814996       0.00655729       0.01458766
Mg      -1.60770943       2.79052055       5.17380770      -0.01186041      -0.00376992       0.02812336
Mg      -1.61411804       4.64628534       7.77409041       0.01356331       0.01045842       0.00165155
Mg       1.60244152       2.78937378       5.18734387       0.03306449      -0.01130081      -0.00827778
Mg       1.60691217       4.64499722       7.77546601       0.00935313       0.01910187       0.00186671
Mg       4.82947790       2.79835862       5.18708430      -0.00752591      -0.02701548      -0.00318108
Mg       4.82122805       4.65697701       7.77248136       0.02754826      -0.01706154      -0.00170999
Mg       8.04606297       2.77712993       5.18394816       0.01952100       0.02159747       0.01325421
Mg       8.06052633       4.65201016       7.78555220      -0.02040919      -0.02856733      -0.02597023
Mg      11.27653376       2.78535367       5.18949383      -0.01475495       0.00858224      -0.02539008
Mg      11.27415220       4.63881544       7.77368822      -0.00941460       0.02126269       0.01132878
Mg      -3.21779965       5.57795713       5.19590686      -0.00208178       0.00255436      -0.03422923
Mg      -3.22737729       7.44093144       7.77239940       0.01799843      -0.01082165       0.02174361
Mg       0.00018373       5.57430050       5.17540430      -0.00929735       0.01706971       0.03227990
Mg       0.00471851       7.43228821       7.78823141      -0.01527966       0.00777259      -0.03287836
Mg       3.21512321       5.58058503       5.18060005       0.01043244      -0.01013190       0.00736763
Mg       3.22467106       7.44010776       7.77292149       0.00468037       0.00006642       0.00872455
Mg       6.44670829       5.57486357       5.18185683      -0.01326400      -0.00037745       0.00695485
Mg       6.45641720       7.42319102       7.77147450      -0.04215317       0.03790892       0.01884521
Mg       9.66196068       5.58054420       5.18329885       0.00202434      -0.01645613       0.00336794
Mg       9.66329326       7.43566716       7.77122519       0.00416060       0.00747409       0.01812986
Mg      11.27415645       8.35877984       5.18902368      -0.00950054       0.03176980      -0.02988399
Mg      -4.83466688      10.22504396       7.77745003       0.00893481       0.01775793      -0.01310659
Mg      -1.61531639       8.37923562       5.19114238       0.01891862      -0.04102332      -0.00868276
Mg      -1.60788634      10.22182610       7.77538841       0.00653735       0.01494174       0.00529491
Mg       1.61400674       8.36316510       5.18303259      -0.01883716      -0.00027818       0.01135670
Mg       1.61766236      10.22906429       7.77251713      -0.02247160      -0.00406644       0.01148491
Mg       4.83270255       8.36379723       5.18747871       0.00031656       0.00710351      -0.00111419
Mg       4.83030978      10.23427803       7.78131978       0.01658787      -0.04218513       0.00908814
Mg       8.04906452       8.36764107       5.18444957       0.00919386       0.01048414      -0.01430819
Mg       8.05223745      10.21966042       7.78423632      -0.00477016       0.02228457      -0.01978488
Mg       9.65818090      11.15152276      10.36326420       0.00870345       0.01067724       0.01037597
Mg       0.00177921       1.86014012      12.95291204      -0.01333801      -0.00000209       0.01527227
Mg      -3.21064965      11.15440001      10.36695152      -0.02445477       0.01342481       0.00502898
Mg       3.21757388       1.85908126      12.96761106       0.00745537       0.00731042      -0.01709437
Mg       6.44048161       0.00842445      10.36827922       0.01013750      -0.02490414      -0.00654550
Mg       6.43270431       1.85083654      12.95178480       0.02567725       0.01878992       0.01999029
Mg       9.65882370       0.00655854      10.37496006       0.01017621      -0.00929696      -0.01398034
Mg       9.65730902       1.85887498      12.96304861       0.01087480       0.00782497       0.00196828
Mg      12.88384602       0.00358211      10.37170728      -0.00684884      -0.00581181      -0.00015489
Mg      12.88542756       1.86637847      12.95679205      -0.00398086      -0.00662444       0.01306636
Mg      -1.60738979       2.78992313      10.36604466      -0.00927037      -0.00524085      -0.00031145
Mg      -1.60587054       4.66495330      12.95232151      -0.00875585      -0.04322581       0.03063803
Mg       1.61297071       2.78350248      10.37217245       0.00213811       0.00970322       0.00167921
Mg       1.61290230       4.65160630      12.96542953       0.00347393       0.00382289      -0.01276938
Mg       4.83347984       2.79584697      10.36492862      -0.01118070      -0.01279092       0.01241113
Mg       4.83590236       4.64948233      12.95483167      -0.01028242      -0.00001940       0.01440685
Mg       8.05299135       2.79484479      10.37370514      -0.00106320      -0.00867775      -0.01143944
Mg       8.05703213       4.65369400      12.95849503      -0.01264117      -0.00251769       0.00143190
Mg      11.26637554       2.79069426      10.36798777       0.01696395       0.00016270       0.00609060
Mg      11.27191299       4.65070419      12.96280817      -0.00350989      -0.00398400      -0.01716393
Mg      -3.20857682       5.57220900      10.36445147      -0.03551018       0.01634837      -0.00370723
Mg      -3.22887808       7.43133076      12.95445001       0.01959796       0.02375282       0.01984865
Mg       0.00411221       5.57423858      10.37388819       0.00536381       0.00861529      -0.01769236
Mg      -0.00763830       7.43868319      12.95606886       0.02951632       0.01257591       0.00122294
Mg       3.22521125       5.57580361      10.36034673      -0.02477995       0.00958927       0.02040268
Mg       3.21678326       7.44164779      12.95718085      -0.00442094      -0.02313223       0.00662545
Mg       6.43316279       5.57449127      10.37072795       0.02499903       0.00731740      -0.01037950
Mg       6.43479840       7.44312056      12.95145322       0.01791189      -0.02507697       0.03352583
Mg       9.66004282       5.58021230      10.36239405       0.02045952       0.01159769       0.02089762
Mg       9.66754202       7.43520138      12.96905386      -0.02451775       0.00939701      -0.02631119
Mg      -4.82413582       8.37503545      10.37119405      -0.02587612      -0.02881612      -0.01441974
Mg      -4.83486714      10.22115694      12.95117639       0.00240822       0.01490025       0.02030929
Mg      -1.61743886       8.37237095      10.37201397       0.02661780      -0.01897430      -0.01320065
Mg      -1.61250228      10.22819565      12.95541690       0.00004555      -0.00764381       0.01834086
Mg       1.61842026       8.37392571      10.35801854      -0.02218750      -0.01071912       0.02242280
Mg       1.62024656      10.21718547      12.96033255      -0.04009948       0.02214391      -0.00454104
Mg       4.83151908       8.36730939      10.38456724       0.00071985       0.00569651      -0.05946594
Mg       4.82583748      10.23020794      12.96091203       0.01431919       0.00546652       0.00560576
Mg       8.04676692       8.36420355      10.36613642       0.02043738      -0.00346366       0.00739929
Mg       8.04293720      10.21306417      12.96201438       0.01814090       0.03392038      -0.00379776
120
Lattice="16.102935 0.0 0.0 -6.441174 11.15644063 0.0 0.0 0.0 15.552384" Properties=species:S:1:pos:R:3:forces:R:3 energy=-180.48523135 stress="0.005285299560651285 0.00027728740653959244 4.046632509693404e-06 0.00027728740653959244 0.008307784733092518 -2.2807722647802602e-07 4.046632509693404e-06 -2.2807722647802602e-07 0.005838356863133676" free_energy=-180.48245086 pbc="T T T"
Mg       0.00392203       0.00831768      15.54356704      -0.01882315      -0.03207263      -0.01852290
Mg      -0.01919206       1.85534553       2.59871985       0.06992854       0.03218561      -0.03024536
Mg       3.20151984       0.00166956      15.54894132       0.04385624      -0.01825313      -0.03102445
Mg       3.21459983       1.85088686       2.57728244       0.00733648       0.05208819       0.03536938
Mg      -0.01620255      11.15199747      15.54476520       0.03399411       0.01875315       0.00921599
Mg       6.43728781       1.86240834       2.59856697      -0.00286220       0.00230618      -0.02320189
Mg       3.21249563      11.14541885       0.00420490       0.00783209       0.03780069       0.01901069
Mg       9.66279909       1.86321049       2.59384278       0.00835919      -0.01026090      -0.00218753
Mg       6.43742730      11.13760387       0.00099753      -0.00502380       0.05261637      -0.02924106
Mg      12.89585356       1.84724573       2.58896835      -0.07064395       0.04066743       0.00969886
Mg      -1.60234789       2.77777477       0.00807200      -0.03065644       0.04163233      -0.04725670
Mg      -1.61559397       4.65742215       2.58982249      -0.01416497      -0.01380739      -0.01146290
Mg       1.59698884       2.80466268      15.54784613       0.02527717      -0.02837881       0.02124692
Mg       1.60719932       4.65285548       2.59186560      -0.00251548      -0.02692549      -0.00870642
Mg       4.84968074       2.78735570      15.54691594      -0.04155737      -0.00473340       0.00368719
Mg       4.82752384       4.65391144       2.58831453       0.00555627      -0.02171502       0.00845593
Mg       8.05426806       2.80121166      15.54556863       0.00345295      -0.04112311       0.02063607
Mg       8.05578685       4.66797793       2.60778518       0.00076099      -0.05012861      -0.02885781
Mg      11.27924472       2.78982986      15.54777863      -0.00996401      -0.02009368       0.01354988
Mg      11.26595448       4.65388422       2.59395662       0.02347181      -0.00159494       0.01148592
Mg      12.87017982       5.58290546      15.54726384       0.03827411      -0.02199246       0.00458038
Mg      -3.21079506       7.43893042       2.58413374      -0.03524688      -0.00333643       0.03502902
Mg      -0.00700790       5.58253016       0.00596123       0.02616637      -0.00275986      -0.01000361
Mg      -0.01151869       7.44005220       2.60696619       0.03277665       0.01332734      -0.01719934
Mg       3.23793044       5.56527226       0.00068088      -0.02528458       0.03622508      -0.01310245
Mg       3.21237299       7.42288657       2.60018644       0.01200058       0.04959868      -0.03651426
Mg       6.46146315       5.56345209       0.00900810      -0.04508488       0.04240757      -0.03694291
Mg       6.43653919       7.44427067       2.58471353       0.00052936      -0.01027687       0.02492057
Mg       9.66455808       5.57999642      15.55211152       0.00042749      -0.01023500       0.01809258
Mg       9.65430489       7.45378332       2.58441337       0.01775441       0.00164281       0.03487106
Mg      11.27402083       8.36275968       0.01226632       0.00791611       0.02677343      -0.03280200
Mg      -4.82346581      10.24428848       2.57567884      -0.04288194      -0.04527372       0.06109258
Mg      -1.57713295       8.35471823      15.55059221      -0.09653170       0.02726585      -0.01711458
Mg      -1.62774615      10.22052370       2.58375332       0.03242859       0.02008107      -0.00212574