108
Lattice="10.7481 0.0 0.0 0.0 10.7481 0.0 0.0 0.0 10.7481" Properties=species:S:1:pos:R:3:forces:R:3 energy=-404.3327479 stress="-0.030272776478152442 -4.088188477453534e-09 -8.563350520711831e-09 -4.088188477453534e-09 -0.030272879987339785 7.989131681130571e-09 -8.563350520711831e-09 7.989131681130571e-09 -0.03027286331626891" free_energy=-404.34477705 pbc="T T T"
Cu       0.00000000       0.00000000       0.00000000       0.00001796       0.00001029      -0.00001449
Cu       1.79135358       1.79135358       0.00000000      -0.00088605      -0.00090490      -0.00002124
Cu       0.00000000       1.79135358       1.79135358       0.00002665      -0.00089608      -0.00090126
Cu       1.79135358       0.00000000       1.79135358      -0.00089303      -0.00000149      -0.00091234
Cu       3.58269642       0.00000000       0.00000000      -0.01591316       0.00002445      -0.00001175
Cu       5.37405000       1.79135358       0.00000000      -0.00000813       0.01589254      -0.00000711
Cu       3.58269642       1.79135358       1.79135358      -0.00100574       0.00100300       0.00096788
Cu       5.37405000       0.00000000       1.79135358       0.00001159       0.00000009       0.01588178
Cu       7.16540358       0.00000000       0.00000000       0.01589430       0.00003039       0.00000028
Cu       8.95674642       1.79135358       0.00000000       0.00089629      -0.00093132      -0.00001809
Cu       7.16540358       1.79135358       1.79135358       0.00097660       0.00097240       0.00098473
Cu       8.95674642       0.00000000       1.79135358       0.00088192      -0.00000744      -0.00087854
Cu       0.00000000       3.58269642       0.00000000       0.00002746      -0.01591877      -0.00002357
Cu       1.79135358       5.37405000       0.00000000       0.01590003       0.00000768      -0.00001819
Cu       0.00000000       5.37405000       1.79135358      -0.00001077       0.00002056       0.01591540
Cu       1.79135358       3.58269642       1.79135358       0.00099155      -0.00101538       0.00099086
Cu       3.58269642       3.58269642       0.00000000       0.00089466       0.00086072      -0.00000165
Cu       5.37405000       5.37405000       0.00000000       0.00000704       0.00002678       0.00001505
Cu       3.58269642       5.37405000       1.79135358       0.00092564       0.00001725      -0.00088507
Cu       5.37405000       3.58269642       1.79135358      -0.00000166       0.00089213      -0.00089579
Cu       7.16540358       3.58269642       0.00000000      -0.00092294       0.00089081       0.00000933
Cu       8.95674642       5.37405000       0.00000000      -0.01590607       0.00003821      -0.00000313
Cu       7.16540358       5.37405000       1.79135358      -0.00091616       0.00004624      -0.00089505
Cu       8.95674642       3.58269642       1.79135358      -0.00098876      -0.00099501       0.00100723
Cu       0.00000000       7.16540358       0.00000000      -0.00000091       0.01590723       0.00000088
Cu       1.79135358       8.95674642       0.00000000      -0.00089601       0.00089669       0.00000911
Cu       0.00000000       8.95674642       1.79135358      -0.00001187       0.00087589      -0.00087050
Cu       1.79135358       7.16540358       1.79135358       0.00099636       0.00101877       0.00100626
Cu       3.58269642       7.16540358       0.00000000       0.00091108      -0.00088412       0.00001302
Cu       5.37405000       8.95674642       0.00000000      -0.00001126      -0.01592042       0.00002101
Cu       3.58269642       8.95674642       1.79135358      -0.00098355      -0.00101956       0.00099012
Cu       5.37405000       7.16540358       1.79135358      -0.00000562      -0.00089231      -0.00089645
Cu       7.16540358       7.16540358       0.00000000      -0.00091072      -0.00092003       0.00003151
Cu       8.95674642       8.95674642       0.00000000       0.00090971       0.00089239       0.00002185
Cu       7.16540358       8.95674642       1.79135358       0.00099584      -0.00102082       0.00099940
Cu       8.95674642       7.16540358       1.79135358      -0.00099155       0.00100396       0.00101435
Cu       0.00000000       0.00000000       3.58269642      -0.00000258      -0.00002339      -0.01589668
Cu       1.79135358       1.79135358       3.58269642       0.00100106       0.00100182      -0.00096890
Cu       0.00000000       1.79135358       5.37405000      -0.00000347       0.01592640       0.00000297
Cu       1.79135358       0.00000000       5.37405000       0.01590092       0.00001826      -0.00000782
Cu       3.58269642       0.00000000       3.58269642       0.00085613       0.00000430       0.00088848
Cu       5.37405000       1.79135358       3.58269642      -0.00000819      -0.00086126       0.00088409
Cu       3.58269642       1.79135358       5.37405000       0.00087697      -0.00086546       0.00000748
Cu       5.37405000       0.00000000       5.37405000       0.00000638       0.00000926       0.00001615
Cu       7.16540358       0.00000000       3.58269642      -0.00085377      -0.00001225       0.00088220
Cu       8.95674642       1.79135358       3.58269642      -0.00099291       0.00099245      -0.00097279
Cu       7.16540358       1.79135358       5.37405000      -0.00087378      -0.00086909       0.00001755
Cu       8.95674642       0.00000000       5.37405000      -0.01590689      -0.00002646       0.00000033
Cu       0.00000000       3.58269642       3.58269642       0.00000060       0.00088441       0.00092249
Cu       1.79135358       5.37405000       3.58269642      -0.00088873      -0.00000976       0.00089485
Cu       0.00000000       5.37405000       5.37405000      -0.00001542      -0.00003297      -0.00000844
Cu       1.79135358       3.58269642       5.37405000      -0.00088852       0.00088095       0.00000107
Cu       3.58269642       3.58269642       3.58269642      -0.00098470      -0.00099959      -0.00096898
Cu       5.37405000       5.37405000       3.58269642      -0.00000646       0.00000601      -0.01591289
Cu       3.58269642       5.37405000       5.37405000      -0.01588740      -0.00001761       0.00000184
Cu       5.37405000       3.58269642       5.37405000      -0.00001373      -0.01589933       0.00001676
Cu       7.16540358       3.58269642       3.58269642       0.00098527      -0.00098035      -0.00097788
Cu       8.95674642       5.37405000       3.58269642       0.00089428       0.00002086       0.00091022
Cu       7.16540358       5.37405000       5.37405000       0.01590708      -0.00000935       0.00001261
Cu       8.95674642       3.58269642       5.37405000       0.00090022       0.00088934       0.00000456
Cu       0.00000000       7.16540358       3.58269642      -0.00003986      -0.00085899       0.00086828
Cu       1.79135358       8.95674642       3.58269642       0.00097935      -0.00099247      -0.00101386
Cu       0.00000000       8.95674642       5.37405000      -0.00003688      -0.01589252      -0.00001595
Cu       1.79135358       7.16540358       5.37405000      -0.00088516      -0.00089926      -0.00001309
Cu       3.58269642       7.16540358       3.58269642      -0.00096914       0.00099451      -0.00102576
Cu       5.37405000       8.95674642       3.58269642      -0.00000144       0.00085918       0.00085895
Cu       3.58269642       8.95674642       5.37405000       0.00088779       0.00088408      -0.00000450
Cu       5.37405000       7.16540358       5.37405000       0.00000514       0.01588613       0.00001232
Cu       7.16540358       7.16540358       3.58269642       0.00101070       0.00098980      -0.00101224
Cu       8.95674642       8.95674642       3.58269642      -0.00097806      -0.00101315      -0.00099660
Cu       7.16540358       8.95674642       5.37405000      -0.00084845       0.00088121       0.00001054
Cu       8.95674642       7.16540358       5.37405000       0.00087803      -0.00086489      -0.00000747
Cu       0.00000000       0.00000000       7.16540358      -0.00002361      -0.00000285       0.01591127
Cu       1.79135358       1.79135358       7.16540358       0.00099607       0.00099800       0.00098809
Cu       0.00000000       1.79135358       8.95674642       0.00000920      -0.00090336       0.00089916
Cu       1.79135358       0.00000000       8.95674642      -0.00089816       0.00003544       0.00092046
Cu       3.58269642       0.00000000       7.16540358       0.00089497       0.00003768      -0.00087596
Cu       5.37405000       1.79135358       7.16540358      -0.00001649      -0.00087522      -0.00087757
Cu       3.58269642       1.79135358       8.95674642      -0.00098788       0.00097992      -0.00097646
Cu       5.37405000       0.00000000       8.95674642      -0.00001299       0.00003585      -0.01589725
Cu       7.16540358       0.00000000       7.16540358      -0.00087153       0.00000218      -0.00088152
Cu       8.95674642       1.79135358       7.16540358      -0.00097903       0.00099745       0.00099116
Cu       7.16540358       1.79135358       8.95674642       0.00097796       0.00096305      -0.00100361
Cu       8.95674642       0.00000000       8.95674642       0.00091153       0.00001456       0.00087844
Cu       0.00000000       3.58269642       7.16540358       0.00000229       0.00088512      -0.00090150
Cu       1.79135358       5.37405000       7.16540358      -0.00089209      -0.00001534      -0.00087931
Cu       0.00000000       5.37405000       8.95674642       0.00001600       0.00000078      -0.01590662
Cu       1.79135358       3.58269642       8.95674642       0.00097830      -0.00101670      -0.00098936
Cu       3.58269642       3.58269642       7.16540358      -0.00098357      -0.00101329       0.00096956
Cu       5.37405000       5.37405000       7.16540358       0.00001625       0.00000637       0.01589672
Cu       3.58269642       5.37405000       8.95674642       0.00089448       0.00002415       0.00088497
Cu       5.37405000       3.58269642       8.95674642      -0.00000441       0.00087561       0.00087901
Cu       7.16540358       3.58269642       7.16540358       0.00098360      -0.00098935       0.00096937
Cu       8.95674642       5.37405000       7.16540358       0.00087509      -0.00000597      -0.00090671
Cu       7.16540358       5.37405000       8.95674642      -0.00090947       0.00002775       0.00088270
Cu       8.95674642       3.58269642       8.95674642      -0.00097282      -0.00099633      -0.00101282
Cu       0.00000000       7.16540358       7.16540358      -0.00002171      -0.00088321      -0.00086983
Cu       1.79135358       8.95674642       7.16540358       0.00098326      -0.00098221       0.00100399
Cu       0.00000000       8.95674642       8.95674642      -0.00001006       0.00090358       0.00088622
Cu       1.79135358       7.16540358       8.95674642       0.00099150       0.00097973      -0.00098989
Cu       3.58269642       7.16540358       7.16540358      -0.00097619       0.00097119       0.00101476
Cu       5.37405000       8.95674642       7.16540358       0.00000543       0.00086850      -0.00088144
Cu       3.58269642       8.95674642       8.95674642      -0.00097893      -0.00100328      -0.00098431
Cu       5.37405000       7.16540358       8.95674642       0.00000342      -0.00091220       0.00088664
Cu       7.16540358       7.16540358       7.16540358       0.00099842       0.00098733       0.00098083
Cu       8.95674642       8.95674642       7.16540358      -0.00098818      -0.00099034       0.00097462
Cu       7.16540358       8.95674642       8.95674642       0.00098943      -0.00099304      -0.00100968
Cu       8.95674642       7.16540358       8.95674642      -0.00099545       0.00098038      -0.00100835
108
Lattice="10.7481 0.0 0.0 0.0 10.7481 0.0 0.0 0.0 10.7481" Properties=species:S:1:pos:R:3:forces:R:3 energy=-404.31115166 stress="-0.030352691837256897 -2.3359802854514354e-05 5.872948011999852e-06 -2.3359802854514354e-05 -0.03033624086695948 7.342124362123261e-06 5.872948011999852e-06 7.342124362123261e-06 -0.03036734570855623" free_energy=-404.3231551 pbc="T T T"
Cu       0.00357718      10.73961255      10.74744931      -0.04132587       0.05637749      -0.00658843
Cu       1.78957380       1.79113830      10.74532828       0.00350417      -0.01496637       0.04732925
Cu       0.00409180       1.78512721       1.80094798      -0.05378140       0.03923092      -0.09070181
Cu       1.79108638      10.74343264       1.78627564       0.03945428       0.04004408       0.03644802
Cu       3.57892824      10.74334794      10.74527432       0.01480100       0.01795800       0.01552874
Cu       5.37195079       1.79456447      10.74773747      -0.00521383      -0.02977009       0.00544690
Cu       3.58063955       1.79941509       1.78799792       0.02253006      -0.07081454       0.02584763
Cu       5.37418231      10.74520392       1.79395387      -0.03380488       0.04779581       0.00285166
Cu       7.15687873      10.74288190      10.74631270       0.06665981       0.03717731       0.01196618
Cu       8.95423695       1.78482046       0.00105202       0.02571800       0.04097305       0.00046132
Cu       7.16223698       1.79340883       1.79157037      -0.01490466      -0.01481640      -0.00851699
Cu       8.95616935      10.74203517       1.79041033      -0.01081658       0.05119516      -0.00387870
Cu      10.74754787       3.58884734      10.74539137      -0.00329986      -0.08720689       0.04864119
Cu       1.79113507       5.37910698       0.00357675       0.02807877      -0.02876983      -0.01005942
Cu      10.74465061       5.37246487       1.79802235       0.02087442       0.00097530      -0.02557559
Cu       1.79342377       3.58132754       1.78935444      -0.03809975       0.01159373       0.00431482
Cu       3.58004658       3.57875853      10.74736590       0.00875169       0.04232390      -0.02575485
Cu       5.37237770       5.37238050      10.74524369      -0.01324154       0.00656644       0.01498779
Cu       3.58177939       5.37182117       1.78891462       0.01548753       0.03214701       0.02763139
Cu       5.37397401       3.58674383       1.79393022       0.00881057      -0.02173072      -0.00900282
Cu       7.15554392       3.58502080       0.00043874       0.09594195      -0.02254062       0.01746967
Cu       8.96446731       5.36878805      10.74009095      -0.08032042       0.01364988       0.06421847
Cu       7.16695819       5.37747897       1.78718364       0.01412085      -0.04229651       0.00122706
Cu       8.95602780       3.57634418       1.79187605       0.00550151       0.01686240      -0.02457668
Cu      10.74618533       7.16470109       0.00012274       0.00501963       0.02825984      -0.00869075
Cu       1.78787507       8.94730518       0.00038446       0.02112432       0.04650899      -0.05405833
Cu       0.00197120       8.95800502       1.79046246      -0.02893367      -0.04057043       0.01616097
Cu       1.79290765       7.16449118       1.78214665      -0.01967751      -0.01735815       0.09069300
Cu       3.58820256       7.16619647       0.00268670      -0.01535915       0.00438802      -0.03522175
Cu       5.37821596       8.96153319       0.00368466      -0.03586906      -0.04491180      -0.00520118
Cu       3.57570747       8.95476146       1.78863292       0.05216272       0.00098795       0.03408039
Cu       5.37620112       7.15988766       1.78773749      -0.03724576       0.04372724       0.04389827
Cu       7.16016335       7.16076943       0.00473937       0.05658636       0.03346789      -0.06811523
Cu       8.95543375       8.95444396       0.00099904      -0.01286384       0.02401349      -0.04626440
Cu       7.16145473       8.95647643       1.79874430       0.03103513      -0.03090687      -0.03095290
Cu       8.95747299       7.16561328       1.78193932      -0.00549480       0.00724133       0.05610588
Cu       0.00379687      10.74612031       3.57765760      -0.04513568       0.00199265       0.05000776
Cu       1.78728887       1.79063282       3.58008345       0.06761187      -0.00804793       0.01705301
Cu       0.00129214       1.79271515       5.37117542      -0.01498995       0.00236877       0.00712007
Cu       1.79352513       0.00055922       5.37394531      -0.00577900      -0.02154072      -0.02758147
Cu       3.59363078       0.00396852       3.58196770      -0.08256552      -0.03168276      -0.01877420
Cu       5.37614319       1.79902439       3.59055199      -0.00213773      -0.01905848      -0.07008588
Cu       3.58334496       1.77994222       5.37714094      -0.01281565       0.12774133      -0.03524992
Cu       5.38304756       0.00225302       5.37107299      -0.08523811      -0.03667876       0.03581849
Cu       7.16237606      10.74469446       3.58007840       0.02477014       0.03774000       0.01841603
Cu       8.93993435       1.78983853       3.58367417       0.09962015      -0.01123289      -0.00887933
Cu       7.16555255       1.79271268       5.37191005       0.00506006       0.01788849       0.02670800
Cu       8.96041216       0.00091928       5.38027508      -0.03359776       0.00870707      -0.04458191
Cu      10.74717480       3.57888890       3.58471910      -0.01984273       0.03081535      -0.01020741
Cu       1.79324708       5.37127441       3.58292030      -0.01981347       0.05468178      -0.01297519
Cu       0.00248980       5.38036268       5.37046497      -0.02101702      -0.04708237       0.00974201
Cu       1.79416152       3.58544159       5.37032578      -0.00441391      -0.04305565       0.04739370
Cu       3.58595642       3.58511130       3.57926423      -0.01654997      -0.02297804       0.03656074
Cu       5.38099413       5.37538104       3.58171770      -0.03939462       0.01765664      -0.01188941
Cu       3.58229250       5.37781560       5.36866499      -0.00415560      -0.00314845       0.03613003
Cu       5.37542984       3.59068290       5.37211373      -0.02025267      -0.04483474       0.03998713
Cu       7.16998335       3.59242345       3.58548372      -0.02561803      -0.04388318      -0.03072410
Cu       8.95194417       5.37765513       3.57683870       0.05717551      -0.02756984       0.03949651
Cu       7.16725666       5.37219595       5.37402195       0.01590487       0.00976118       0.04240138
Cu       8.95623642       3.58251617       5.37744006       0.02626324       0.02576626      -0.04199055
Cu      10.74797672       7.16595528       3.58606090      -0.00004342       0.00273299      -0.04104669
Cu       1.78843762       8.95444847       3.58090568       0.02915517       0.01242539       0.01028416
Cu      10.74313492       8.95725588       5.37646349       0.00890014      -0.02184985      -0.01763223
Cu       1.79353362       7.17436943       5.37924606      -0.00511836      -0.05846142      -0.04466077
Cu       3.58509604       7.16569195       3.58712431      -0.01410457      -0.00882383      -0.05528909
Cu       5.37566512       8.95371793       3.58303197      -0.02614645      -0.00519260      -0.01589033
Cu       3.58708863       8.95413764       5.36986211      -0.00825953       0.06222622       0.05541462
Cu       5.37590039       7.16980310       5.37677464       0.00868149      -0.02778672      -0.00729419
Cu       7.16694174       7.15913809       3.58818236      -0.00643284       0.04998759      -0.03798935
Cu       8.95428048       8.95677060       3.58511324       0.01315688      -0.01302757      -0.00913369
Cu       7.16363563       8.96302180       5.37315221       0.03202766      -0.04902012       0.02807011
Cu       8.95018900       7.16413713       5.37511664       0.04830048       0.02166270       0.01077702
Cu      10.74360611      10.74363373       7.16465079       0.02519859       0.04214677       0.01071882
Cu       1.78545975       1.78822589       7.16997593       0.00181394       0.05880592      -0.05146127
Cu       0.00807430       1.78568160       8.96178523      -0.10851090       0.03595528      -0.02252055
Cu       1.79198256       0.00202709       8.95445664      -0.00497763      -0.08112732       0.02741579
Cu       3.57521778       0.01267470       7.16458759       0.07505630      -0.14642129       0.00184364
Cu       5.37523863       1.78995450       7.15962067      -0.00790612       0.05194528       0.04603570
Cu       3.58164375       1.78689452       8.95440473       0.01651825       0.04707051       0.00925832
Cu       5.37274507      10.74694995       8.95603242      -0.01444858       0.01083715      -0.03633916
Cu       7.16371065       0.00872735       7.16104233       0.01822729      -0.07215048       0.03735146
Cu       8.95565011       1.79466916       7.16858029       0.03346518      -0.00559341      -0.01439651
Cu       7.16558920       1.79374246       8.95414484      -0.02458910      -0.00547104       0.02926622
Cu       8.95311786       0.00630827       8.95160668       0.01047007      -0.05880817       0.05014216
Cu      10.74136889       3.58484518       7.16478589       0.06061195      -0.00262592       0.00789616
Cu       1.79040119       5.37035513       7.16515874       0.02399189       0.01900692      -0.00716720
Cu       0.00811181       5.37730001       8.96582018      -0.02305450      -0.01876405      -0.08653533
Cu       1.78349468       3.57893630       8.95770590       0.06494299       0.03900982      -0.00956328
Cu       3.58358518       3.58656649       7.16931793       0.00065577      -0.02085740      -0.01396111
Cu       5.37367726       5.38091696       7.16544152      -0.00220809      -0.04470569       0.02169647
Cu       3.58372211       5.38040331       8.96155630      -0.01894867      -0.06771224      -0.02498198
Cu       5.37687041       3.58511431       8.96292389      -0.05893254      -0.02767080      -0.08481284
Cu       7.17205827       3.58345072       7.16868745      -0.05436921       0.01609796      -0.02285594
Cu       8.96117141       5.38208206       7.16606233      -0.00999094      -0.06226619       0.01036852
Cu       7.16314390       5.36832459       8.95802824       0.01810321       0.06461350      -0.00674867
Cu       8.95421965       3.58457605       8.95706854       0.03418283      -0.02414335       0.01542783
Cu       0.00712921       7.16061971       7.16671464      -0.06045003       0.03172323      -0.01056457
Cu       1.78898287       8.95696407       7.16099063       0.03596887       0.02499675       0.02048425
Cu      10.74709548       8.95785670       8.95029777       0.00421478      -0.01735731       0.05474184
Cu       1.79490669       7.16518389       8.95214903      -0.01143609       0.01131757       0.02720433
Cu       3.58409926       7.16584877       7.16974001      -0.00224087      -0.00229981      -0.03659465
Cu       5.38105550       8.95255014       7.16801440      -0.07371936       0.07402969      -0.03568930
Cu       3.58394438       8.95019233       8.95378596      -0.00905162       0.05335066       0.00207223
Cu       5.37920350       7.17052806       8.95758240      -0.03059737      -0.04057772       0.02367271
Cu       7.16445238       7.16185478       7.16973689       0.02765647       0.01908046      -0.01810539
Cu       8.95879038       8.95541580       7.17033030      -0.04687825      -0.02059131      -0.01754078
Cu       7.16141324       8.95713292       8.95513506       0.05814776       0.00044126       0.00937618
Cu       8.95980017       7.15916001       8.95695708      -0.03190498       0.03932702       0.01386733
108
Lattice="10.7481 0.0 0.0 0.0 10.7481 0.0 0.0 0.0 10.7481" Properties=species:S:1:pos:R:3:forces:R:3 energy=-404.24504766 stress="-0.030662053173307672 -2.9790517088039638e-05 -3.327423413117876e-05 -2.9790517088039638e-05 -0.030655527413373178 1.3022821410027656e-05 -3.327423413117876e-05 1.3022821410027656e-05 -0.030680430510498687" free_energy=-404.25697337 pbc="T T T"
Cu       0.00714813      10.73113369      10.74679755      -0.07876538       0.10153878      -0.01365026
Cu       1.78779456       1.79092076      10.74256376       0.00192863      -0.02109294       0.08984385
Cu       0.00817543       1.77890664       1.81052862      -0.10883521       0.07943359      -0.18682008
Cu       1.79082542      10.73877140       1.78120318       0.07982161       0.07121785       0.06376744
Cu       3.57516232      10.73859857      10.74245101       0.04621489       0.03617233       0.03176887
Cu       5.36985082       1.79777084      10.74737579      -0.00846256      -0.08842927       0.01327449
Cu       3.57858624       1.80746574       1.78464612       0.04405283      -0.14909592       0.05552373
Cu       5.37430957      10.74231505       1.79655459      -0.06614902       0.09723801      -0.02820486
Cu       7.14836397      10.73766940      10.74452733       0.12684631       0.08792501       0.02915440
Cu       8.95173157       1.77829346       0.00210416       0.04785242       0.06747918       0.00378734
Cu       7.15906822       1.79546172       1.79178576      -0.02717766      -0.03561721      -0.02044765
Cu       8.95559078      10.73597797       1.78946643      -0.03093913       0.08260789      -0.00366456
Cu      10.74699542       3.59498483      10.74269005      -0.00459739      -0.16617297       0.09987110
Cu       1.79092108       5.38415945       0.00715200       0.04146244      -0.06788905      -0.03080314
Cu      10.74120445       5.37087974       1.80468725       0.03750229       0.00375257      -0.05671272
Cu       1.79548838       3.57996049       1.78735604      -0.08319174       0.02790178       0.01329973
Cu       3.57739814       3.57482709      10.74662783      -0.00035432       0.07471447      -0.05154154
Cu       5.37070347       5.37071186      10.74238953      -0.01673063       0.02415971       0.04696846
Cu       3.58086473       5.36959717       1.78647996       0.02681807       0.05073712       0.05098001
Cu       5.37389942       3.59078791       1.79650558       0.01799070      -0.04113743      -0.01809223
Cu       7.14569888       3.58734175       0.00088005       0.18686450      -0.05687276       0.03551149
Cu       8.97217607       5.36352815      10.73209167      -0.15120704       0.03312784       0.12888949
Cu       7.16851494       5.38090148       1.78301392       0.03317146      -0.07781293       0.00162018
Cu       8.95531004       3.56999442       1.79239464       0.01094807       0.03398645      -0.04772170
Cu      10.74427163       7.16400278       0.00024409       0.01138042       0.04065424      -0.01685428
Cu       1.78439978       8.93787082       0.00076075       0.05439925       0.10065007      -0.11519859
Cu       0.00393810       8.95925739       1.78957380      -0.06622039      -0.08015739       0.03261647
Cu       1.79445882       7.16357598       1.77295359      -0.04099666      -0.03663960       0.19039346
Cu       3.59370656       7.16699000       0.00536814      -0.02224060       0.01005794      -0.06051678
Cu       5.38237655       8.96631298       0.00736847      -0.08620138      -0.08835857      -0.02284654
Cu       3.56872657       8.95277661       1.78591752       0.11261502       0.00261303       0.07599681
Cu       5.37834677       7.15437829       1.78412817      -0.06472230       0.08004006       0.08622421
Cu       7.15493171       7.15614033       0.00946832       0.10352358       0.06432984      -0.12503651
Cu       8.95411926       8.95214505       0.00199119      -0.03443331       0.04345640      -0.09086437
Cu       7.15751061       8.95620170       1.80613029       0.06776435      -0.06964219      -0.07214337
Cu       8.95819892       7.16582416       1.77253366      -0.01350217       0.01592710       0.12286021
Cu       0.00758708      10.74414094       3.57262631      -0.09229080       0.00606915       0.11413471
Cu       1.78323447       1.78991087       3.57747316       0.14242738      -0.01737501       0.04305595
Cu       0.00258202       1.79407694       5.36830192      -0.03333668      -0.01930332       0.02304588
Cu       1.79569592       0.00111512       5.37383644      -0.04397922      -0.04516777      -0.05506581
Cu       3.60455279       0.00793210       3.58123607      -0.15334269      -0.05569955      -0.03411265
Cu       5.37823617       1.80669230       3.59839703      -0.00319442      -0.04649350      -0.13157624
Cu       3.58399167       1.76855031       5.38022650      -0.03288855       0.24746214      -0.06501273
Cu       5.39203222       0.00450034       5.36810146      -0.15899677      -0.07362766       0.06635075
Cu       7.15935229      10.74129463       3.57746327       0.04712530       0.06794957       0.02866750
Cu       8.92313743       1.78832176       3.58465053       0.21066252      -0.03167528      -0.00827521
Cu       7.16570238       1.79407446       5.36977419       0.01100984       0.04280432       0.05162563
Cu       8.96407286       0.00183986       5.38649329      -0.06061503       0.01545098      -0.09903787
Cu      10.74624681       3.57508601       3.58674028      -0.04928988       0.05340741      -0.01665675
Cu       1.79513767       5.36850710       3.58314225      -0.02964454       0.10006505      -0.02950250
Cu       0.00497648       5.38666816       5.36688134      -0.04239474      -0.09345032       0.01218826
Cu       1.79696893       3.58818031       5.36660866       0.00112502      -0.08246318       0.08671823
Cu       3.58921407       3.58752274       3.57583762      -0.04094359      -0.04910715       0.07776252
Cu       5.38793235       5.37671478       3.58073725      -0.09440332       0.03511014      -0.00244978
Cu       3.58188816       5.38158076       5.36328546       0.01010599      -0.01498172       0.08380592
Cu       5.37680667       3.59866250       5.37018348      -0.04448304      -0.07327422       0.08564149
Cu       7.17455935       3.60214371       3.58826630      -0.05708277      -0.09357682      -0.06458424
Cu       8.94715084       5.38125596       3.57098690       0.10601202      -0.04365038       0.06733555
Cu       7.16911232       5.37034341       5.37400024       0.00572816       0.02508373       0.08656517