120
Lattice="15.9435 0.03985875 0.0 -6.34978505 11.03003732 0.0 0.0 0.0 15.3984" Properties=species:S:1:pos:R:3:forces:R:3 energy=-180.52789429 stress="-0.0013247352148605266 0.000936411716737491 -9.986414601413212e-09 0.000936411716737491 0.0020456936004742384 2.212614985125615e-08 -9.986414601413212e-09 2.212614985125615e-08 -0.001099160764885379" free_energy=-180.52411871 pbc="T T T"
Mg       0.00000000       0.00000000       0.00000000      -0.00417757      -0.00116142      -0.00000492
Mg       0.00460252       1.84099684       2.56640005      -0.00009602       0.00218507      -0.00000110
Mg       3.18870000       0.00797175       0.00000000      -0.00663309      -0.00027524      -0.00000482
Mg       3.19330252       1.84896859       2.56640005       0.00602951       0.00132197      -0.00000056
Mg       6.37740000       0.01594350       0.00000000      -0.00070727      -0.00555806      -0.00000382
Mg       6.38200252       1.85694034       2.56640005       0.00173368      -0.00025061       0.00000143
Mg       9.56610000       0.02391525       0.00000000      -0.00783622       0.00338435      -0.00000579
Mg       9.57070252       1.86491209       2.56640005       0.00718863       0.00360149      -0.00000128
Mg      12.75480000       0.03188700       0.00000000      -0.00188241      -0.00172147      -0.00000666
Mg      12.75940252       1.87288384       2.56640005       0.00310722       0.00150860      -0.00000040
Mg      -1.58744626       2.75750933       0.00000000      -0.00417737      -0.00116344      -0.00000581
Mg      -1.58284374       4.59850617       2.56640005      -0.00009480       0.00218783      -0.00000311
Mg       1.60125374       2.76548108       0.00000000      -0.00663401      -0.00027292      -0.00000669
Mg       1.60585626       4.60647792       2.56640005       0.00602923       0.00132250      -0.00000055
Mg       4.78995374       2.77345283       0.00000000      -0.00070433      -0.00555943      -0.00000328
Mg       4.79455626       4.61444967       2.56640005       0.00173019      -0.00024791       0.00000289
Mg       7.97865374       2.78142458       0.00000000      -0.00783582       0.00338522      -0.00000330
Mg       7.98325626       4.62242142       2.56640005       0.00718684       0.00360508       0.00000100
Mg      11.16735374       2.78939633       0.00000000      -0.00188191      -0.00172293      -0.00000528
Mg      11.17195626       4.63039317       2.56640005       0.00310864       0.00150766       0.00000017
Mg      -3.17489253       5.51501866       0.00000000      -0.00417705      -0.00116402      -0.00000463
Mg      -3.17029000       7.35601550       2.56640005      -0.00009626       0.00218379      -0.00000015
Mg       0.01380748       5.52299041       0.00000000      -0.00663344      -0.00027399      -0.00000490
Mg       0.01841000       7.36398725       2.56640005       0.00602986       0.00132251       0.00000028
Mg       3.20250748       5.53096216       0.00000000      -0.00070803      -0.00555803      -0.00000226
Mg       3.20711000       7.37195900       2.56640005       0.00173169      -0.00025059       0.00000165
Mg       6.39120747       5.53893391       0.00000000      -0.00783857       0.00338392      -0.00000541
Mg       6.39581000       7.37993075       2.56640005       0.00718710       0.00360339      -0.00000152
Mg       9.57990748       5.54690566       0.00000000      -0.00188261      -0.00172388      -0.00000252
Mg       9.58451000       7.38790250       2.56640005       0.00310974       0.00150577       0.00000022
Mg      -4.76233879       8.27252799       0.00000000      -0.00417689      -0.00116370      -0.00000366
Mg      -4.75773626      10.11352483       2.56640005      -0.00009567       0.00218267      -0.00000199
Mg      -1.57363879       8.28049974       0.00000000      -0.00663256      -0.00027455      -0.00000617
Mg      -1.56903626      10.12149658       2.56640005       0.00603058       0.00132079      -0.00000033
Mg       1.61506121       8.28847149       0.00000000      -0.00070874      -0.00555933      -0.00000636
Mg       1.61966374      10.12946833       2.56640005       0.00173145      -0.00025139       0.00000109
Mg       4.80376121       8.29644324       0.00000000      -0.00783915       0.00338527      -0.00000713
Mg       4.80836374      10.13744008       2.56640005       0.00718794       0.00359998      -0.00000153
Mg       7.99246121       8.30441499       0.00000000      -0.00188433      -0.00172313      -0.00000309
Mg       7.99706374      10.14541183       2.56640005       0.00310672       0.00150480       0.00000055
Mg       0.00000000       0.00000000       5.13279995      -0.00417519      -0.00116466       0.00000405
Mg       0.00460252       1.84099684       7.69920000      -0.00009267       0.00218513       0.00000715
Mg       3.18870000       0.00797175       5.13279995      -0.00663278      -0.00027435       0.00000474
Mg       3.19330252       1.84896859       7.69920000       0.00602829       0.00132406       0.00000622
Mg       6.37740000       0.01594350       5.13279995      -0.00070953      -0.00556116       0.00000629
Mg       6.38200252       1.85694034       7.69920000       0.00173424      -0.00024889       0.00000748
Mg       9.56610000       0.02391525       5.13279995      -0.00783962       0.00338190       0.00000548
Mg       9.57070252       1.86491209       7.69920000       0.00718635       0.00360124       0.00000795
Mg      12.75480000       0.03188700       5.13279995      -0.00188254      -0.00172530       0.00000633
Mg      12.75940252       1.87288384       7.69920000       0.00310591       0.00150462       0.00000876
Mg      -1.58744626       2.75750933       5.13279995      -0.00417321      -0.00116486       0.00000563
Mg      -1.58284374       4.59850617       7.69920000      -0.00009350       0.00218674       0.00000602
Mg       1.60125374       2.76548108       5.13279995      -0.00663314      -0.00027455       0.00000505
Mg       1.60585626       4.60647792       7.69920000       0.00603259       0.00132288       0.00000695
Mg       4.78995374       2.77345283       5.13279995      -0.00070816      -0.00555677       0.00000417
Mg       4.79455626       4.61444967       7.69920000       0.00173275      -0.00024921       0.00000590
Mg       7.97865374       2.78142458       5.13279995      -0.00784085       0.00338549       0.00000530
Mg       7.98325626       4.62242142       7.69920000       0.00718559       0.00360267       0.00000550
Mg      11.16735374       2.78939633       5.13279995      -0.00188264      -0.00172309       0.00000563
Mg      11.17195626       4.63039317       7.69920000       0.00310920       0.00150753       0.00000556
Mg      -3.17489253       5.51501866       5.13279995      -0.00417532      -0.00115999       0.00000445
Mg      -3.17029000       7.35601550       7.69920000      -0.00009312       0.00218988       0.00000534
Mg       0.01380748       5.52299041       5.13279995      -0.00663166      -0.00027093       0.00000612
Mg       0.01841000       7.36398725       7.69920000       0.00602971       0.00132318       0.00000511
Mg       3.20250748       5.53096216       5.13279995      -0.00070568      -0.00555738       0.00000507
Mg       3.20711000       7.37195900       7.69920000       0.00173514      -0.00025157       0.00000625
Mg       6.39120747       5.53893391       5.13279995      -0.00783990       0.00338429       0.00000532
Mg       6.39581000       7.37993075       7.69920000       0.00718793       0.00360289       0.00000685
Mg       9.57990748       5.54690566       5.13279995      -0.00188584      -0.00172015       0.00000512
Mg       9.58451000       7.38790250       7.69920000       0.00310726       0.00150905       0.00000661
Mg      -4.76233879       8.27252799       5.13279995      -0.00417454      -0.00116457       0.00000592
Mg      -4.75773626      10.11352483       7.69920000      -0.00009519       0.00218374       0.00000316
Mg      -1.57363879       8.28049974       5.13279995      -0.00663203      -0.00027307       0.00000331
Mg      -1.56903626      10.12149658       7.69920000       0.00602772       0.00132191       0.00000708
Mg       1.61506121       8.28847149       5.13279995      -0.00070645      -0.00555987       0.00000698
Mg       1.61966374      10.12946833       7.69920000       0.00173319      -0.00025078       0.00000687
Mg       4.80376121       8.29644324       5.13279995      -0.00783874       0.00338355       0.00000453
Mg       4.80836374      10.13744008       7.69920000       0.00718850       0.00360112       0.00000609
Mg       7.99246121       8.30441499       5.13279995      -0.00188458      -0.00172160       0.00000623
Mg       7.99706374      10.14541183       7.69920000       0.00310806       0.00150495       0.00000549
Mg       0.00000000       0.00000000      10.26560005      -0.00417876      -0.00116388       0.00000053
Mg       0.00460252       1.84099684      12.83199995      -0.00009656       0.00218509      -0.00000713
Mg       3.18870000       0.00797175      10.26560005      -0.00663479      -0.00027412      -0.00000083
Mg       3.19330252       1.84896859      12.83199995       0.00603112       0.00132237      -0.00000606
Mg       6.37740000       0.01594350      10.26560005      -0.00070761      -0.00555848      -0.00000065
Mg       6.38200252       1.85694034      12.83199995       0.00173522      -0.00024976      -0.00000750
Mg       9.56610000       0.02391525      10.26560005      -0.00784029       0.00338335       0.00000027
Mg       9.57070252       1.86491209      12.83199995       0.00719072       0.00360113      -0.00000620
Mg      12.75480000       0.03188700      10.26560005      -0.00188385      -0.00172668       0.00000051
Mg      12.75940252       1.87288384      12.83199995       0.00310683       0.00150581      -0.00000141
Mg      -1.58744626       2.75750933      10.26560005      -0.00417802      -0.00116478       0.00000063
Mg      -1.58284374       4.59850617      12.83199995      -0.00009423       0.00218510      -0.00000297
Mg       1.60125374       2.76548108      10.26560005      -0.00663357      -0.00026968       0.00000130
Mg       1.60585626       4.60647792      12.83199995       0.00602676       0.00132275      -0.00000505
Mg       4.78995374       2.77345283      10.26560005      -0.00070852      -0.00555926      -0.00000113
Mg       4.79455626       4.61444967      12.83199995       0.00173456      -0.00024805      -0.00000508
Mg       7.97865374       2.78142458      10.26560005      -0.00784043       0.00338426      -0.00000066
Mg       7.98325626       4.62242142      12.83199995       0.00719106       0.00359989      -0.00000473
Mg      11.16735374       2.78939633      10.26560005      -0.00188334      -0.00172510       0.00000211
Mg      11.17195626       4.63039317      12.83199995       0.00310682       0.00150496      -0.00000339
Mg      -3.17489253       5.51501866      10.26560005      -0.00417694      -0.00116402      -0.00000008
Mg      -3.17029000       7.35601550      12.83199995      -0.00009505       0.00218539      -0.00000625
Mg       0.01380748       5.52299041      10.26560005      -0.00663393      -0.00027119       0.00000068
Mg       0.01841000       7.36398725      12.83199995       0.00602971       0.00132420      -0.00000620
Mg       3.20250748       5.53096216      10.26560005      -0.00070902      -0.00555791      -0.00000234
Mg       3.20711000       7.37195900      12.83199995       0.00173433      -0.00024943      -0.00000739
Mg       6.39120747       5.53893391      10.26560005      -0.00784284       0.00338497      -0.00000151
Mg       6.39581000       7.37993075      12.83199995       0.00718730       0.00360487      -0.00000666
Mg       9.57990748       5.54690566      10.26560005      -0.00188575      -0.00172497       0.00000001
Mg       9.58451000       7.38790250      12.83199995       0.00310787       0.00150550      -0.00000367
Mg      -4.76233879       8.27252799      10.26560005      -0.00417780      -0.00116518      -0.00000098
Mg      -4.75773626      10.11352483      12.83199995      -0.00009481       0.00218836      -0.00000625
Mg      -1.57363879       8.28049974      10.26560005      -0.00663165      -0.00027483      -0.00000182
Mg      -1.56903626      10.12149658      12.83199995       0.00602891       0.00132374      -0.00000497
Mg       1.61506121       8.28847149      10.26560005      -0.00070833      -0.00556106       0.00000005
Mg       1.61966374      10.12946833      12.83199995       0.00173409      -0.00025079      -0.00000625
Mg       4.80376121       8.29644324      10.26560005      -0.00784021       0.00338389      -0.00000213
Mg       4.80836374      10.13744008      12.83199995       0.00718827       0.00360315      -0.00000586
Mg       7.99246121       8.30441499      10.26560005      -0.00188681      -0.00172293       0.00000097
Mg       7.99706374      10.14541183      12.83199995       0.00310606       0.00150913      -0.00000507
120
Lattice="15.9435 0.03985875 0.0 -6.34978505 11.03003732 0.0 0.0 0.0 15.3984" Properties=species:S:1:pos:R:3:forces:R:3 energy=-180.51256061 stress="-0.0013269201986847517 0.000883715123300843 2.099319111472582e-06 0.000883715123300843 0.0019472765233849055 -4.0266971295453325e-06 2.099319111472582e-06 -4.0266971295453325e-06 -0.001107835825936426" free_energy=-180.50876045 pbc="T T T"
Mg       0.00159094       0.00907311       0.00033522      -0.00440972      -0.02774112      -0.01974370
Mg      -0.00076320       1.84488341       2.56267749       0.00700062      -0.00085468       0.01120903
Mg       3.19563951       0.02004527      15.39766134      -0.02612488      -0.03907708       0.00473768
Mg       3.19346652       1.85141865       2.56141159       0.00684144      -0.00133706       0.01366241
Mg       6.37344636       0.02070423      15.39208065       0.02281010      -0.02541973       0.02596239
Mg       6.38249471       1.85939608       2.56833963       0.00492993      -0.01680974       0.00130469
Mg       3.22300253      11.04678249       0.00322612      -0.02672475       0.02297549      -0.01386295
Mg       9.57857577       1.86685597       2.56475643      -0.01310452      -0.00746224       0.01495509
Mg      12.75411012       0.03948685      15.39359447       0.00280238      -0.02070929       0.00695965
Mg      12.76091071       1.86973676       2.56472039       0.00189009       0.02667161       0.00129370
Mg      14.34989775       2.80374010      15.39096165       0.00544480       0.00347929       0.01806850
Mg      -1.57697367       4.60197523       2.57453456      -0.01414098      -0.00948497      -0.01666114
Mg       1.59031122       2.76396937       0.00490146       0.02215863       0.01665464      -0.02129010
Mg       1.60796578       4.60365445       2.56900192      -0.00187377       0.02131093      -0.00027697
Mg       4.79786225       2.77056145      15.39750181      -0.01967525       0.01723712       0.00313229
Mg       4.79363763       4.61600297       2.55888332       0.00932563       0.00377651       0.01989185
Mg       7.98830078       2.78080174      15.39715704      -0.03287977      -0.00470059      -0.00018683
Mg       7.98657122       4.61484923       2.56922350      -0.01156876       0.02770541      -0.00553032
Mg      11.16461153       2.78805391       0.00476811       0.01312040       0.00440912      -0.01581180
Mg      11.16493277       4.63470263       2.56909908       0.04316684      -0.01055461      -0.00219101
Mg      -3.17390527       5.52045351      15.39647320      -0.01421403      -0.01711260       0.01173272
Mg      -3.16196771       7.35688121       2.56568018      -0.01486234       0.00863165       0.01442460
Mg       0.01656900       5.53101223       0.00001555      -0.02406773      -0.03391905      -0.00432893
Mg       0.01154088       7.36473976       2.55956147       0.03283445       0.00655275       0.03531416
Mg       3.18699699       5.52933863       0.00499447       0.02974786      -0.01617747      -0.01060720
Mg       3.20511514       7.37701646       2.57237771      -0.00288440      -0.02274415      -0.00165885
Mg       6.38819444       5.53807220      15.39235443      -0.00692775       0.01341865       0.01471923
Mg       6.39877364       7.37881479       2.56434036      -0.00162595      -0.00341548       0.00232390
Mg       9.57474892       5.53927738       0.00648149       0.01073188       0.02984974      -0.01499590
Mg       9.59679482       7.38755124       2.57411927      -0.02745394       0.00689077      -0.02003428
Mg      -4.75548158       8.27850219      15.39817488      -0.03086993      -0.00268227       0.00480791
Mg      -4.76637211      10.11826679       2.57603252       0.03685379      -0.00121575      -0.03573980
Mg      -1.57700489       8.27545903       0.00535064      -0.00123815       0.03365151      -0.02268712
Mg      -1.56521649      10.12164531       2.57014525       0.00186050       0.00386656      -0.00852428
Mg       1.61445281       8.28434885       0.00205646      -0.01212682       0.01665181       0.00392334
Mg       1.62669077      10.12619665       2.55731038      -0.02107443       0.01676351       0.03033013
Mg       4.79336366       8.29671151       0.00657465       0.02324197      -0.00765674      -0.01639811
Mg       4.80566687      10.13701735       2.56814623       0.02341388       0.00016685       0.00005475
Mg       7.98535947       8.30803222       0.00789676       0.01671229      -0.01141012      -0.03387197
Mg       7.99383343      10.14909386       2.56016863       0.01476211      -0.00928336       0.00523392
Mg      -6.34586964      11.02578869       5.12865578      -0.00822924       0.00869788      -0.00020622
Mg       0.00095684       1.82802480       7.68971782       0.01471737       0.03837303       0.01791469
Mg       3.20383820       0.00845695       5.13368551      -0.04452188       0.00688968       0.00060964
Mg       3.19804227       1.84858345       7.70421264      -0.01361410      -0.00621034      -0.01488463
Mg       0.02483868      11.03517009       5.14020735       0.01957419       0.03163488      -0.02171205
Mg       6.37813023       1.85949519       7.70562806       0.00385012      -0.02143382      -0.01241056
Mg       9.57122406       0.02677481       5.13424416      -0.02410374       0.00408849      -0.00881654
Mg       9.56857259       1.85454537       7.70079312      -0.00030482       0.01706770      -0.00272854
Mg      12.75939906       0.03206187       5.12364976      -0.00925006       0.00065612       0.02759190
Mg      12.75476506       1.88023888       7.70133052       0.02027097      -0.02225446      -0.01034053
Mg      -1.58539659       2.75670103       5.13489013      -0.00449537       0.00009805      -0.00578359
Mg      -1.57234271       4.60224529       7.69466994      -0.01986506      -0.00906031       0.00837207
Mg       1.60142571       2.77418094       5.12787477      -0.00723849      -0.04086506       0.01281974
Mg       1.60415707       4.60225424       7.69631896       0.01699618       0.01332449       0.02253125
Mg       4.78429281       2.77715242       5.13670945       0.01462691      -0.01264722      -0.01038372
Mg       4.78722085       4.62028500       7.70242212       0.01717143      -0.01248667      -0.00482512
Mg       7.96736808       2.78701167       5.12987071       0.02093717      -0.02879756       0.01341585
Mg       7.98183232       4.61441167       7.69722731       0.00693858       0.01751959       0.01162969
Mg      11.16991396       2.79054455       5.13521981      -0.01507941      -0.00741763      -0.01068714
Mg      11.17176178       4.62166807       7.69524523      -0.00040076       0.02626911       0.01758980
Mg      -3.17395056       5.51394514       5.13723992      -0.00429844       0.00194782      -0.01119238
Mg      -3.17234037       7.34812790       7.70082930      -0.00401158       0.01162665       0.00161518
Mg       0.01758265       5.52752967       5.14016731      -0.00825654      -0.00306908      -0.02623952
Mg       0.02007196       7.36408596       7.69995298       0.01890229      -0.00646605       0.01451224
Mg       3.20400083       5.52319388       5.13708378      -0.00248327       0.02490291      -0.00897639
Mg       3.21356270       7.38247714       7.70237607      -0.01601266      -0.02135319      -0.00926328
Mg       6.39499223       5.54416875       5.13756868      -0.02228056      -0.01371593      -0.01893024
Mg       6.38721161       7.37771609       7.69755560       0.03435037       0.00788423       0.00009493
Mg       9.58190072       5.54551477       5.13689715      -0.01013843       0.00593477      -0.00308009
Mg       9.58275168       7.39035913       7.69274099      -0.00182871      -0.01782926       0.00874566
Mg      -4.75975236       8.27480804       5.13058704      -0.00172897      -0.00739587       0.01290642
Mg      -4.76374072      10.11638949       7.69747399       0.02989902      -0.01188809      -0.00667547
Mg      -1.57332743       8.27800746       5.14393007      -0.00645784      -0.01061506      -0.03248909
Mg      -1.57058273      10.10361999       7.69545942       0.00974391       0.04481472       0.03026263
Mg       1.61560220       8.28966790       5.14196908      -0.00473123      -0.01737999      -0.03653009
Mg       1.61921915      10.12008714       7.69061816       0.00278434       0.02922684       0.04301311
Mg       4.79526973       8.29260731       5.13281504       0.00959833       0.01335339      -0.00372051
Mg       4.81737008      10.13672009       7.69719651      -0.01003194       0.00823133       0.00259500
Mg       7.98162228       8.30302262       5.12568820       0.02114894       0.00929457       0.01301519
Mg       7.99944674      10.14323489       7.70075308      -0.00658240       0.00136381      -0.02307536
Mg       0.00322691       0.00117109      10.26030962      -0.01173485       0.00151398       0.01371548
Mg       0.01115867       1.84618714      12.82682562      -0.00700770      -0.01774029       0.00317455
Mg      -3.16005902      11.03701916      10.26117378      -0.00094424      -0.00431686       0.00410171
Mg       3.20020416       1.85145118      12.83452082      -0.01594746       0.00485936      -0.00243244
Mg       6.37746718       0.01756189      10.27429091      -0.00139371      -0.02571107      -0.04201610
Mg       6.37511612       1.84512653      12.83050230       0.02294462       0.04501108       0.00020758
Mg       3.21187000      11.05165760      10.27416911       0.00945067       0.00609401      -0.02253050
Mg       9.56612656       1.86945808      12.83329880       0.02028944      -0.01332067       0.00114579
Mg       6.40811574      11.05366940      10.25656627      -0.01203252       0.03621003       0.02232108
Mg      12.77214120       1.87515171      12.83146562      -0.02541671      -0.01217990      -0.02352900
Mg      -1.58566634       2.77118100      10.25531423      -0.00701655      -0.04483948       0.01080397
Mg      -1.58838496       4.59872483      12.82620938       0.02362683       0.01797861       0.01442091
Mg       1.59996477       2.76861677      10.27200486      -0.00195382      -0.00525947      -0.03532335
Mg       1.59870014       4.60637829      12.81796600       0.02105666       0.00679540       0.03176265
Mg       4.77928389       2.77324445      10.26179341       0.02256698       0.01230173       0.02007037
Mg       4.79406417       4.61742675      12.83774278      -0.00586650      -0.00896538      -0.01844299
Mg       7.97552926       2.77718420      10.26617965      -0.01242239       0.01966822       0.00520831
Mg       7.98009600       4.62584283      12.83163578       0.00176875      -0.01109732      -0.00072246
Mg      11.16433720       2.79473501      10.26491036      -0.00087392      -0.03622089       0.00559847
Mg      11.17813101       4.62016308      12.83074313      -0.01582727       0.02087979       0.01869056
Mg      12.76090143       5.55121973      10.26925656      -0.00061220       0.01148041      -0.02084909
Mg      -3.17338693       7.35632710      12.83213160       0.01975418       0.00459611      -0.00486290
Mg       0.00402928       5.52725995      10.26390961       0.02445141       0.00048617       0.00033734
Mg       0.02311443       7.36663191      12.84138512      -0.01546248      -0.00484018      -0.02475877
Mg       3.20874179       5.54652409      10.26342426      -0.02255809      -0.04347158       0.00556308
Mg       3.20272934       7.36438812      12.84225959       0.01351812       0.01799003      -0.01406133
Mg       6.38657070       5.54534088      10.26135594       0.00613158      -0.03008548       0.00669720
Mg       6.39103422       7.38248411      12.82101827       0.01975822       0.00085944       0.03553229
Mg       9.57439147       5.54481181      10.27222260       0.00080183       0.00035081      -0.02801662
Mg       9.59269859       7.37594898      12.83137046      -0.01664573       0.03916895       0.01792027
Mg      11.18069662       8.30834156      10.26018166      -0.00532604       0.00884753       0.00177448
Mg      -4.74581869      10.11346593      12.82231205      -0.02442108       0.00484456       0.02152449
Mg      -1.57096950       8.27388328      10.26596130      -0.00735025       0.01552610       0.01049161
Mg      -1.56080965      10.12719099      12.82961812      -0.02140717      -0.02961571       0.00788526
Mg       1.62636964       8.28576424      10.26998767      -0.03802070       0.00784844      -0.00326337
Mg       1.61878664      10.12406734      12.83524254       0.01778218       0.00572263       0.00470439
Mg       4.80530577       8.29600648      10.26854330      -0.01218873       0.02238066       0.00142036
Mg       4.81255834      10.14122495      12.83562781      -0.00633859      -0.00077452      -0.00821189
Mg       7.99213800       8.30317450      10.26289486       0.01010656      -0.00441653      -0.00155324
Mg       7.99632328      10.14249706      12.82470819       0.02895842       0.00270247       0.01479160
120
Lattice="15.9435 0.03985875 0.0 -6.34978505 11.03003732 0.0 0.0 0.0 15.3984" Properties=species:S:1:pos:R:3:forces:R:3 energy=-180.46534468 stress="-0.0013303603063036281 0.0008577429368016904 -3.3156019948334524e-06 0.0008577429368016904 0.0018639137166468385 -1.2705927508688312e-05 -3.3156019948334524e-06 -1.2705927508688312e-05 -0.001144522923499147" free_energy=-180.4615183 pbc="T T T"
Mg       0.00318022       0.01813495       0.00066259      -0.00705054      -0.05264595      -0.03929741
Mg      -0.00612607       1.84876943       2.55895939       0.01116188      -0.00895768       0.02475512
Mg       3.20256859       0.03210308      15.39692453      -0.04726857      -0.07004519       0.01106878
Mg       3.19363319       1.85386795       2.55642851       0.00665662      -0.00682053       0.02913749
Mg       6.36950166       0.02545472      15.38577162       0.04631535      -0.04427195       0.05595162
Mg       6.38298893       1.86184498       2.57027983       0.00625217      -0.03413611       0.00090754
Mg       3.22967939      11.03962133       0.00644669      -0.04465716       0.04485925      -0.02969404
Mg       9.58644362       1.86879675       2.56311881      -0.03652057      -0.01796426       0.03175762
Mg      12.75342141       0.04707831      15.38879186       0.00560121      -0.03942548       0.01199866
Mg      12.76241979       1.86660007       2.56304151       0.00063974       0.05141122       0.00365365
Mg      14.34374378       2.81011334      15.38353038       0.02023279       0.00538731       0.03811036
Mg      -1.57110912       4.60544031       2.58266261      -0.03237052      -0.01980039      -0.04142259
Mg       1.57937753       2.76246399       0.00979446       0.05166278       0.03602440      -0.04859807
Mg       1.61007453       4.60083926       2.57160379      -0.01028817       0.04097090      -0.00093676
Mg       4.80576296       2.76767668      15.39660485      -0.04178228       0.04269488       0.00865298
Mg       4.79272260       4.61755749       2.55137445       0.01252057       0.00657516       0.04467163
Mg       7.99793467       2.78017677      15.39591408      -0.06042105      -0.01802241       0.00269071
Mg       7.98988156       4.60728785       2.57204495      -0.02796325       0.05644701      -0.00954368
Mg      11.16187433       2.78671306       0.00952992       0.02812447       0.01174369      -0.03012630
Mg      11.15792634       4.63900771       2.57179750       0.08006520      -0.02234516      -0.00204607
Mg      -3.17292381       5.52588149      15.39455117      -0.02614329      -0.03511761       0.02412591
Mg      -3.15365131       7.35775021       2.56496615      -0.03752615       0.01269734       0.02942554
Mg       0.01932079       5.53902043       0.00002941      -0.04262075      -0.06952830      -0.00843666
Mg       0.00468471       7.36549473       2.55273705       0.06153818       0.00631260       0.07712963
Mg       3.17149813       5.52770850       0.00998463       0.05972929      -0.02769962      -0.02179715
Mg       3.20311925       7.38206465       2.57835475      -0.00623209      -0.04692632      -0.00188467
Mg       6.38517881       5.53721556      15.38631472      -0.00502655       0.02232988       0.02844332
Mg       6.40173657       7.37769728       2.56228175      -0.00744579      -0.01257193       0.00412653
Mg       9.56959464       5.53166082       0.01295698       0.02444145       0.06181599      -0.03034464
Mg       9.60906893       7.38720250       2.58183048      -0.05764531       0.01252016      -0.04523148
Mg      -4.74863659       8.28447515      15.39795175      -0.05838615      -0.00079487       0.01102360
Mg      -4.77499332      10.12300801       2.58565098       0.07151814      -0.00394682      -0.06963742
Mg      -1.58037147       8.27043135       0.01069234       0.00908438       0.06669715      -0.04410043
Mg      -1.56139595      10.12179547       2.57388722      -0.00822427       0.00551052      -0.02150302