108
Lattice="10.8573 0.0 0.0 -0.16222117 10.85608804 0.0 -0.16222117 -0.16466334 10.85483918" Properties=species:S:1:pos:R:3:forces:R:3 energy=-405.04958616 stress="-0.0008349719579181117 -0.007796048942321453 -0.007915258340037314 -0.007796048942321453 -0.0010679749833982849 -0.008034514199547106 -0.007915258340037314 -0.008034514199547106 -0.0013117371223096556" free_energy=-405.04514562 pbc="T T T"
Cu       0.00000000       0.00000000       0.00000000       0.00001069       0.00001015       0.00000854
Cu       1.78251670       1.80935163       0.00000000      -0.00715807      -0.00724599       0.00795709
Cu      -0.05407383       1.78190768       1.80914348       0.00821770      -0.00701874      -0.00714927
Cu       1.78251670      -0.02744394       1.80914348      -0.00715495       0.00807512      -0.00712141
Cu       3.61909638       0.00000000       0.00000000       0.00519779      -0.00201406      -0.00205288
Cu       5.40161308       1.80935163       0.00000000       0.00209986      -0.00513238       0.00200617
Cu       3.56502255       1.78190768       1.80914348      -0.00497757       0.00213270       0.00216794
Cu       5.40161308      -0.02744394       1.80914348       0.00210906       0.00206574      -0.00509876
Cu       7.23820362       0.00000000       0.00000000      -0.00520974       0.00199314       0.00204484
Cu       9.02070947       1.80935163       0.00000000       0.00951094      -0.00932854      -0.00001085
Cu       7.18412979       1.78190768       1.80914348       0.00143516       0.00150643       0.00151277
Cu       9.02070947      -0.02744394       1.80914348       0.00949577       0.00010865      -0.00935573
Cu      -0.05407367       3.61869239       0.00000000      -0.00208020       0.00514009      -0.00204606
Cu       1.72844303       5.42804402       0.00000000      -0.00517146       0.00201747       0.00201167
Cu      -0.10814750       5.40060008       1.80914348       0.00207071       0.00214246      -0.00511208
Cu       1.72844303       3.59124845       1.80914348       0.00219424      -0.00494071       0.00216092
Cu       3.56502271       3.61869239       0.00000000       0.00717175       0.00729514      -0.00806216
Cu       5.34753941       5.42804402       0.00000000       0.00000380       0.00000526       0.00001169
Cu       3.51094888       5.40060008       1.80914348       0.00954580       0.00018639      -0.00941879
Cu       5.34753941       3.59124845       1.80914348       0.00005957       0.00954447      -0.00942473
Cu       7.18412995       3.61869239       0.00000000      -0.00954344       0.00939560       0.00001204
Cu       8.96663580       5.42804402       0.00000000       0.00516286      -0.00201794      -0.00200420
Cu       7.13005612       5.40060008       1.80914348      -0.00716237       0.00812310      -0.00715721
Cu       8.96663580       3.59124845       1.80914348      -0.00225317      -0.00223869       0.00491966
Cu      -0.10814750       7.23739565       0.00000000       0.00208864      -0.00515220       0.00206608
Cu       1.67436936       9.04673641       0.00000000      -0.00951370       0.00935309       0.00002548
Cu      -0.16222117       9.01929247       1.80914348       0.00001911       0.00948104      -0.00935096
Cu       1.67436920       7.20995170       1.80914348       0.00143754       0.00149394       0.00152793
Cu       3.51094888       7.23739565       0.00000000       0.00955865      -0.00940702       0.00000734
Cu       5.29346575       9.04673641       0.00000000      -0.00208143       0.00512832      -0.00198971
Cu       3.45687521       9.01929247       1.80914348      -0.00220984      -0.00228474       0.00494801
Cu       5.29346558       7.20995170       1.80914348       0.00825696      -0.00700170      -0.00715550
Cu       7.13005612       7.23739565       0.00000000      -0.00719710      -0.00726706       0.00806018
Cu       8.91256213       9.04673641       0.00000000       0.00714788       0.00722595      -0.00796422
Cu       7.07598245       9.01929247       1.80914348       0.00219374      -0.00500097       0.00221212
Cu       8.91256196       7.20995170       1.80914348      -0.00501086       0.00215984       0.00221195
Cu      -0.05407367      -0.05488773       3.61827611      -0.00207532      -0.00213804       0.00514435
Cu       1.72844303       1.75446390       3.61827611       0.00219972       0.00223958      -0.00489420
Cu      -0.10814750       1.72701996       5.42741959       0.00206538      -0.00516409       0.00205858
Cu       1.72844303      -0.08233167       5.42741959      -0.00516892       0.00197574       0.00204915
Cu       3.56502271      -0.05488773       3.61827611       0.00715409      -0.00816959       0.00715824
Cu       5.34753941       1.75446390       3.61827611       0.00004430      -0.00953157       0.00939746
Cu       3.51094888       1.72701996       5.42741959       0.00954302      -0.00940318       0.00002815
Cu       5.34753941      -0.08233167       5.42741959       0.00001283      -0.00000385       0.00000730
Cu       7.18412995      -0.05488773       3.61827611      -0.00952998      -0.00017438       0.00938705
Cu       8.96663580       1.75446390       3.61827611      -0.00224157       0.00495595      -0.00215835
Cu       7.13005612       1.72701996       5.42741959      -0.00715921      -0.00728958       0.00801625
Cu       8.96663580      -0.08233167       5.42741959       0.00516237      -0.00199657      -0.00202472
Cu      -0.10814734       3.56380467       3.61827611      -0.00823476       0.00705316       0.00716145
Cu       1.67436936       5.37315629       3.61827611      -0.00955654      -0.00011719       0.00937398
Cu      -0.16222117       5.34571235       5.42741959      -0.00001116      -0.00000032       0.00000819
Cu       1.67436936       3.53636072       5.42741959      -0.00955603       0.00939481       0.00002788
Cu       3.51094904       3.56380467       3.61827611      -0.00144614      -0.00147441      -0.00147328
Cu       5.29346575       5.37315629       3.61827611      -0.00204679      -0.00207636       0.00509027
Cu       3.45687521       5.34571235       5.42741959       0.00515660      -0.00200144      -0.00202477
Cu       5.29346575       3.53636072       5.42741959      -0.00206166       0.00509538      -0.00202928
Cu       7.13005628       3.56380467       3.61827611       0.00500409      -0.00216323      -0.00220812
Cu       8.91256213       5.37315629       3.61827611       0.00715117      -0.00809434       0.00712025
Cu       7.07598245       5.34571235       5.42741959      -0.00514851       0.00200897       0.00202210
Cu       8.91256213       3.53636072       5.42741959       0.00716760       0.00726866      -0.00799351
Cu      -0.16222117       7.18250792       3.61827611       0.00000006      -0.00951939       0.00936139
Cu       1.62029570       8.99184869       3.61827611       0.00499875      -0.00216011      -0.00220280
Cu      -0.21629484       8.96440474       5.42741959      -0.00207944       0.00516488      -0.00205569
Cu       1.62029553       7.15506398       5.42741959      -0.00717202      -0.00724551       0.00799235
Cu       3.45687521       7.18250792       3.61827611      -0.00221935       0.00501736      -0.00220887
Cu       5.23939208       8.99184869       3.61827611      -0.00819363       0.00700678       0.00712396
Cu       3.40280154       8.96440474       5.42741959       0.00715393       0.00728243      -0.00802429
Cu       5.23939191       7.15506398       5.42741959       0.00208506      -0.00509222       0.00200453
Cu       7.07598245       7.18250792       3.61827611       0.00222185       0.00229798      -0.00497230
Cu       8.85848846       8.99184869       3.61827611      -0.00148677      -0.00148794      -0.00149832
Cu       7.02190878       8.96440474       5.42741959      -0.00952651       0.00940434      -0.00003276
Cu       8.85848830       7.15506398       5.42741959       0.00953610      -0.00939606      -0.00003173
Cu      -0.10814750      -0.10977561       7.23656307       0.00208610       0.00213923      -0.00515163
Cu       1.67436920       1.69957601       7.23656307       0.00144997       0.00146992       0.00150770
Cu      -0.16222117       1.67213223       9.04569570       0.00001543      -0.00949812       0.00936942
Cu       1.67436936      -0.13721940       9.04569570      -0.00950081      -0.00011316       0.00935002
Cu       3.51094888      -0.10977561       7.23656307       0.00952643       0.00015481      -0.00938587
Cu       5.29346558       1.69957601       7.23656307       0.00823219      -0.00706373      -0.00712507
Cu       3.45687521       1.67213223       9.04569570      -0.00222237       0.00495272      -0.00219515
Cu       5.29346575      -0.13721940       9.04569570      -0.00208955      -0.00207606       0.00509040
Cu       7.13005612      -0.10977561       7.23656307      -0.00715881       0.00815075      -0.00715950
Cu       8.91256196       1.69957601       7.23656307      -0.00500325       0.00212569       0.00216986
Cu       7.07598245       1.67213223       9.04569570       0.00220734       0.00226560      -0.00495600
Cu       8.91256213      -0.13721940       9.04569570       0.00713903      -0.00807927       0.00710551
Cu      -0.16222117       3.50891678       7.23656307       0.00001351       0.00952789      -0.00939410
Cu       1.62029553       5.31826841       7.23656307      -0.00715271       0.00809895      -0.00711005
Cu      -0.21629484       5.29082462       9.04569570      -0.00205828      -0.00211639       0.00510470
Cu       1.62029570       3.48147300       9.04569570       0.00501499      -0.00214694      -0.00218882
Cu       3.45687521       3.50891678       7.23656307      -0.00225443      -0.00226844       0.00495806
Cu       5.23939191       5.31826841       7.23656307       0.00207261       0.00211350      -0.00510243
Cu       3.40280154       5.29082462       9.04569570       0.00712714      -0.00811745       0.00716693
Cu       5.23939208       3.48147300       9.04569570      -0.00821967       0.00702246       0.00717693
Cu       7.07598245       3.50891678       7.23656307       0.00224122      -0.00499301       0.00219457
Cu       8.85848830       5.31826841       7.23656307       0.00953322       0.00013253      -0.00939245
Cu       7.02190878       5.29082462       9.04569570      -0.00952024      -0.00015805       0.00941432
Cu       8.85848846       3.48147300       9.04569570      -0.00147531      -0.00148994      -0.00150144
Cu      -0.21629500       7.12762003       7.23656307       0.00823467      -0.00705965      -0.00715095
Cu       1.56622186       8.93696080       7.23656307       0.00223745      -0.00494010       0.00217861
Cu      -0.27036851       8.90951702       9.04569570      -0.00819733       0.00701053       0.00712761
Cu       1.56622186       7.10017625       9.04569570       0.00224472       0.00222755      -0.00494717
Cu       3.40280138       7.12762003       7.23656307      -0.00501833       0.00214584       0.00220259
Cu       5.18531825       8.93696080       7.23656307       0.00000115       0.00955161      -0.00941048
Cu       3.34872787       8.90951702       9.04569570      -0.00144968      -0.00146602      -0.00149736
Cu       5.18531825       7.10017625       9.04569570      -0.00001762      -0.00954956       0.00943178
Cu       7.02190862       7.12762003       7.23656307       0.00146222       0.00147577       0.00148440
Cu       8.80441463       8.93696080       7.23656307      -0.00224017      -0.00222896       0.00488776
Cu       6.96783511       8.90951702       9.04569570       0.00497341      -0.00214423      -0.00218384
Cu       8.80441463       7.10017625       9.04569570      -0.00222751       0.00494062      -0.00218060
108
Lattice="10.8573 0.0 0.0 -0.16222117 10.85608804 0.0 -0.16222117 -0.16466334 10.85483918" Properties=species:S:1:pos:R:3:forces:R:3 energy=-405.03063342 stress="-0.0009312894163035337 -0.007786906691829316 -0.00792549928962239 -0.007786906691829316 -0.0011363229723642713 -0.008017184674425129 -0.00792549928962239 -0.008017184674425129 -0.0013839104760453138" free_energy=-405.02620661 pbc="T T T"
Cu      10.69290053      10.85074771       0.00813711      -0.00252742       0.02809684      -0.07135833
Cu       1.62461243       1.64372136      10.85177475      -0.05350163      -0.01146179       0.01211345
Cu      10.80266330       1.77441740       1.80701876       0.01438128       0.06087201      -0.00047766
Cu       1.78184992      -0.02558048       1.80929284       0.00511342      -0.01502528      -0.00168696
Cu       3.30024128      10.68705185      10.85392412      -0.03172607       0.04858605      -0.00771844
Cu       5.24973351       1.64564711      10.85002908      -0.08611127      -0.02314884       0.04816896
Cu       3.55986911       1.77807243       1.81151277       0.04747518       0.02017094      -0.03898037
Cu       5.23678715      10.82562596       1.80873035       0.02136853       0.03836226      -0.00300930
Cu       7.07697163      -0.16230405      10.84941849       0.00241898      -0.02830232       0.04994849
Cu       8.85749836       1.64302573      10.85022707       0.01979409      -0.01184656       0.03112169
Cu       7.18351239       1.77960572       1.81365421       0.00977803       0.02041812      -0.03126183
Cu       8.86108672      10.82606045       1.81245041      -0.02167938      -0.01046712      -0.02006461
Cu      10.80244704       3.62054779       0.00103892       0.04041664      -0.03982329      -0.01318921
Cu       1.56855177       5.26454076      10.85307136       0.00188134      -0.00819544       0.01273365
Cu      10.74505931       5.39270273       1.80461202       0.04030688       0.06120188       0.04944805
Cu       1.73525465       3.59525545       1.81144677      -0.06323745      -0.01762026      -0.04735483
Cu       3.39365926       3.45279275      10.85005230       0.08024454       0.00984641       0.01392607
Cu       5.18442113       5.26429862      10.85372591       0.00575534      -0.00760681       0.00932299
Cu       3.52002608       5.39572368       1.80755151      -0.05035328       0.03072368      -0.00423163
Cu       5.34555165       3.58426845       1.80675846       0.01221200       0.03514041       0.01347511
Cu       7.17652286       3.61849399       0.00175783       0.05214361       0.04115426       0.00012819
Cu       8.97122194       5.43078887       0.00714248      -0.03905967      -0.02697415      -0.07379642
Cu       7.13734591       5.40477141       1.80903678      -0.07685009      -0.07054410      -0.00706619
Cu       8.96909918       3.59380523       1.80368578      -0.03324005      -0.04564568       0.03062406
Cu      -0.10684500       7.22945217       0.00126459       0.01711187       0.04360181      -0.00297413
Cu       1.51477868       8.88815331      10.85393324      -0.03391235      -0.03964478      -0.00570384
Cu      -0.15743322       9.01348034       1.80512882      -0.02086996       0.01796293       0.02609595
Cu       1.67457506       7.20562672       1.81444770       0.01873316       0.00036742      -0.02489215
Cu       3.51231859       7.24174846       0.00170595      -0.01096542      -0.03975509      -0.00542844
Cu       5.29048861       9.05408256       0.00072695       0.05162055      -0.05382619      -0.00412582
Cu       3.45634484       9.01677049       1.80034140      -0.01018264       0.01387864       0.08937893
Cu       5.28841827       7.20656329       1.81100487       0.03906593       0.03633238      -0.01682516
Cu       7.13633196       7.23332138       0.00880816      -0.08528651       0.01339639      -0.05680264
Cu       8.91499062       9.03698992       0.00152478      -0.00338954       0.07086684      -0.00825409
Cu       7.07567704       9.02077807       1.81336232      -0.01890115       0.01240157      -0.00512048
Cu       8.90530239       7.21424157       1.80647525       0.07499624      -0.01246410       0.05117145
Cu      -0.21250890      10.79863524       3.62063074      -0.01456984       0.02070514      -0.01807801
Cu       1.72904660       1.76375859       3.61380858      -0.05510390      -0.07050219       0.03076571
Cu      -0.10711981       1.72562202       5.43027485       0.00426728      -0.01485709      -0.03683713
Cu       1.56886494      10.76398468       5.42976054      -0.00680781       0.08732500      -0.01420955
Cu       3.56630399      -0.04425865       3.61626568      -0.02413947      -0.08618217       0.00326919
Cu       5.34935527       1.75321489       3.62300773      -0.01169079       0.02580400      -0.01117198
Cu       3.50685045       1.73369289       5.41739905       0.01934538      -0.02748818       0.06390153
Cu       5.33948233      -0.08043400       5.42915691       0.05510253       0.00226617       0.00336406
Cu       7.17625045      -0.04248247       3.62266298       0.04601401      -0.08459918       0.00986562
Cu       8.96251298       1.75720810       3.61380370       0.04825655      -0.00502733       0.02519278
Cu       7.13397314       1.72701073       5.43169878      -0.02973670       0.00931148      -0.00371301
Cu       8.97480548      -0.08059216       5.42839012      -0.05340556      -0.00877360      -0.03107143
Cu      -0.10605713       3.56418948       3.61890135      -0.00930254      -0.01802541      -0.01278383
Cu       1.67149669       5.37388449       3.62197066       0.00413304      -0.00309992      -0.00003793
Cu      10.68667758       5.34114437       5.42267157       0.06670120       0.04120759       0.03993535
Cu       1.67442551       3.53274659       5.43709755      -0.02322404       0.04257790      -0.05425973
Cu       3.50230701       3.56201627       3.61559008       0.06718002       0.03714425       0.01762229
Cu       5.29249634       5.37510106       3.61366725       0.00015258      -0.03153580       0.03465800
Cu       3.45494434       5.34691415       5.42743164       0.01351105       0.00646236       0.01124961
Cu       5.29053327       3.54453511       5.42187516       0.00876076      -0.03559251       0.02759567
Cu       7.12942665       3.56591656       3.62696009       0.00027598      -0.01094402      -0.06459210
Cu       8.91202455       5.36986833       3.62072214       0.01760336       0.01110278      -0.02512664
Cu       7.07973622       5.34761031       5.42721259      -0.02461191       0.00103321       0.01547382
Cu       8.91828941       3.53466182       5.42568292      -0.04158823      -0.00495432       0.01120268
Cu      -0.16080299       7.17953232       3.61848745      -0.03321250      -0.00441515      -0.01230058
Cu       1.61728969       8.99370794       3.62088572       0.05354160      -0.00325067      -0.03691997
Cu      -0.21383604       8.96891890       5.42598957      -0.02773009      -0.03858850       0.01410107
Cu       1.61489127       7.16402226       5.42347993       0.01304647      -0.05325235       0.03676910
Cu       3.45813906       7.18308426       3.62559791      -0.01843293       0.01379691      -0.04028913
Cu       5.23975150       8.99609988       3.61899524      -0.01563722      -0.01962959      -0.00414287
Cu       3.40612676       8.96921779       5.43206448      -0.02320122      -0.02997885      -0.04153027
Cu       5.24049385       7.15906751       5.42547125      -0.01339214      -0.04674305       0.01405767
Cu       7.07792723       7.17291217       3.61350617      -0.00260992       0.05941509       0.03858144
Cu       8.85642007       8.98829366       3.62175346       0.00452780       0.02250217      -0.00941305
Cu       7.02279620       8.95795402       5.42593356      -0.00769447       0.05880034      -0.00994416
Cu       8.86486716       7.15216186       5.43280533      -0.02735167       0.02001991      -0.03520193
Cu      -0.26683917      10.74389118       7.23533289      -0.00675473      -0.00390305       0.01463364
Cu       1.67121106       1.70190704       7.23626163       0.03507238      -0.03513021      -0.00225255
Cu      10.69235950       1.67207976       9.03588661       0.02003798      -0.02386249       0.08856142
Cu       1.67109251      -0.13335873       9.04588045       0.01897541      -0.01798470       0.01384643
Cu       3.51479382      -0.10381588       7.22992447      -0.03283852      -0.01732576       0.03819355
Cu       5.29378400       1.69797852       7.23724378       0.00725140       0.03336416      -0.03994803
Cu       3.46040922       1.66993179       9.04372185      -0.01896091       0.00714840       0.00226003
Cu       5.29024864      -0.13292624       9.04484348       0.03423597      -0.04477849      -0.01613572
Cu       7.13451020      -0.10584023       7.23255199      -0.06065764      -0.03891557       0.00808088
Cu       8.91130276       1.69502050       7.24123434      -0.00371389       0.02367629      -0.01573715
Cu       7.07334918       1.67677070       9.04831551       0.01435806      -0.00889398      -0.03829771
Cu       8.74538322      10.71528704       9.04436196       0.05866240       0.00138464       0.03394396
Cu      10.69077230       3.50493732       7.22989679       0.01280119       0.05407854       0.04345737
Cu       1.61667030       5.32121934       7.23052083      -0.01491031      -0.00944358       0.01604242
Cu      10.64093262       5.29353020       9.04507860      -0.00835108      -0.03225446      -0.00349411
Cu       1.62080063       3.47887515       9.04348348      -0.00802154       0.03176198      -0.01569348
Cu       3.45701002       3.50578079       7.23495959       0.01703786       0.02535380       0.01895886
Cu       5.24467633       5.31732167       7.23873675      -0.03252461       0.02004304      -0.02634512
Cu       3.40837972       5.29714582       9.04200853      -0.03915983      -0.05465045       0.01254521
Cu       5.23717645       3.48188795       9.04756143      -0.00196113       0.01669351      -0.01549247
Cu       7.07640557       3.50937867       7.23507661       0.02198296      -0.00139701       0.01256276
Cu       8.86236893       5.32199245       7.23634304      -0.01648733      -0.03478975       0.00807332
Cu       7.02297962       5.29114950       9.04479692       0.00615379      -0.00774132       0.02829922
Cu       8.86569879       3.47754829       9.05192985      -0.04744110       0.04578193      -0.03068934
Cu      10.63633812       7.13165971       7.23973887       0.03773842      -0.02098813      -0.02916879
Cu       1.56762297       8.93452045       7.24254669       0.00358252       0.01251841      -0.01242937
Cu      -0.26483688       8.90544512       9.04600311      -0.04396010       0.02828988       0.02376982
Cu       1.56612522       7.09313111       9.04706069       0.00579886       0.03505906       0.00659816
Cu       3.39556242       7.12722189       7.24149692       0.03875766      -0.01332668      -0.05328211
Cu       5.18065296       8.93534096       7.23562576       0.04317803       0.02914559       0.01240477
Cu       3.35095115       8.90668031       9.04483089      -0.02490467       0.03536936      -0.00395499
Cu       5.18212224       7.10295475       9.05000464       0.04737719      -0.01680077       0.00377495
Cu       7.01740950       7.12874484       7.23517376       0.01848215       0.00358559       0.01138391
Cu       8.80176528       8.94278510       7.23431558       0.00686373      -0.02956689       0.01052086
Cu       6.96953068       8.90666858       9.04909619      -0.03289591       0.00999725      -0.01649858
Cu       8.79779889       7.10379012       9.04308446       0.03930124      -0.01926817       0.01545089
108
Lattice="10.8573 0.0 0.0 -0.16222117 10.85608804 0.0 -0.16222117 -0.16466334 10.85483918" Properties=species:S:1:pos:R:3:forces:R:3 energy=-404.97122411 stress="-0.0012043509529158648 -0.007781328867334824 -0.007933143596648842 -0.007781328867334824 -0.001390020301811659 -0.008012183989796489 -0.007933143596648842 -0.008012183989796489 -0.0016629490940079008" free_energy=-404.96683901 pbc="T T T"
Cu      10.69072200      10.84541167       0.01626326      -0.00805166       0.05551809      -0.15110252
Cu       1.62892117       1.64275277      10.84871206      -0.10225163      -0.01972263       0.01524701
Cu      10.80210269       1.76693636       1.80489381       0.02341131       0.12165686       0.00324173
Cu       1.78118394      -0.02371930       1.80944177       0.01654600      -0.03353953       0.00504991
Cu       3.30582366      10.68268641      10.85300775      -0.05905921       0.10842236      -0.00996431
Cu       5.26006213       1.64660246      10.84522624      -0.17217851      -0.03731385       0.08447684
Cu       3.55472288       1.77424021       1.81387597       0.09966346       0.04256533      -0.08464687
Cu       5.23418568      10.82261359       1.80831678       0.04056548       0.07146228      -0.00142271
Cu       7.07796120      -0.15994910      10.84400529       0.00985837      -0.05371691       0.09292219
Cu       8.85651142       1.64136147      10.84561951       0.03276488      -0.01584358       0.06938682
Cu       7.18289643       1.77730688       1.81816016       0.01682849       0.03426081      -0.05965626
Cu       8.86368185      10.82347521       1.81575419      -0.04666184      -0.02555805      -0.02281910
Cu      10.80167396       3.62239703       0.00207588       0.08164074      -0.08363992      -0.02938851
Cu       1.57088199       5.26569952      10.85130550       0.00380732      -0.02009835       0.03053097
Cu      10.74097216       5.38481471       1.80008805       0.08654915       0.11534583       0.10615679
Cu       1.74205675       3.59925973       1.81374289      -0.12508835      -0.03223182      -0.08764613
Cu       3.38452931       3.45155794      10.84526749       0.14478263       0.01171244       0.03091655
Cu       5.18352488       5.26521557      10.85261405       0.01379940      -0.01420555       0.01996529
Cu       3.52909573       5.39085196       1.80595878      -0.11764701       0.05879441      -0.00334348
Cu       5.34356584       3.57729384       1.80437549       0.02394196       0.05629969       0.03203441
Cu       7.16892381       3.61830187       0.00351567       0.12241446       0.07183616       0.00056447
Cu       8.97580223       5.43352965       0.01427379      -0.08403825      -0.05640710      -0.15260025
Cu       7.14462393       5.40893201       1.80892910      -0.13847513      -0.14142924      -0.01348522
Cu       8.97155760       3.59635522       1.79823274      -0.07023295      -0.09576134       0.05870618
Cu      -0.10553987       7.22151521       0.00252874       0.03169691       0.08931560      -0.00796263
Cu       1.51740394       8.89422759      10.85302631      -0.05207407      -0.09811282      -0.01405132
Cu      -0.15264830       9.00767096       1.80111806      -0.03739492       0.02228806       0.06929884
Cu       1.67478380       7.20130180       1.81974823       0.02860594      -0.00159023      -0.04731016
Cu       3.51368666       7.24609521       0.00341102      -0.02992992      -0.07554787      -0.01731089
Cu       5.28751931       9.06142057       0.00145325       0.10736968      -0.10081943      -0.00490584
Cu       3.45581303       9.01425068       1.79155289      -0.02358609       0.03271166       0.17959473
Cu       5.28337699       7.20318045       1.81286365       0.07327043       0.08159719      -0.02022346
Cu       7.14259476       7.22924909       0.01760763      -0.16048769       0.04281439      -0.12081882
Cu       8.91741875       9.02725419       0.00304826      -0.00215296       0.12928893      -0.01500159
Cu       7.07536889       9.02226564       1.81758041      -0.03919680       0.03175873      -0.01789262
Cu       8.89805422       7.21852970       1.80381484       0.16311474      -0.03198734       0.10297405
Cu      -0.20872513      10.79607335       3.62298266      -0.03267418       0.04372327      -0.03807000
Cu       1.72964189       1.77304245       3.60934562      -0.10571611      -0.14039817       0.06508232
Cu      -0.10609157       1.72422178       5.43312446       0.00891392      -0.02656175      -0.07992731
Cu       1.57150709      10.75422628       5.43209922      -0.00199632       0.16501052      -0.02033234
Cu       3.56758176      -0.03364260       3.61425569      -0.05319536      -0.16941738      -0.00348525
Cu       5.35116946       1.75196981       3.62773751      -0.02473159       0.06873624      -0.03586236
Cu       3.50275497       1.74036166       5.40738829       0.03532872      -0.04716119       0.12986647
Cu       5.33143359      -0.07853590       5.43089466       0.12160546      -0.00037239       0.00061172
Cu       7.16837806      -0.03008994       3.62705127       0.10636166      -0.17763682       0.00546452
Cu       8.95839761       1.75995158       3.60933509       0.10226740      -0.01855429       0.05635432
Cu       7.13788570       1.72700304       5.43597733      -0.05686833       0.01948601      -0.01347409
Cu       8.98296711      -0.07885387       5.42935577      -0.10875661      -0.01655606      -0.06910668
Cu      -0.10396836       3.56457160       3.61952452      -0.01845166      -0.04617954      -0.03698119
Cu       1.66862478       5.37461237       3.62566511       0.01547771      -0.00704264      -0.00926664
Cu      10.67828656       5.33658261       5.41792953       0.13991356       0.08120846       0.07930695
Cu       1.67447820       3.52913898       5.44676726      -0.04250395       0.07550696      -0.11593928
Cu       3.49367527       3.56023359       3.61290676       0.14253839       0.08723711       0.04471973
Cu       5.29152692       5.37704096       3.60906361       0.00445852      -0.06155382       0.06417675
Cu       3.45301560       5.34811702       5.42744532       0.02163385       0.01325430       0.02145343
Cu       5.28760211       3.55270401       5.41633485       0.01687169      -0.06764424       0.06749372
Cu       7.12879720       3.56802687       3.63563430       0.00128397      -0.02381345      -0.12916266
Cu       8.91148973       5.36658206       3.62316426       0.02950539       0.02532968      -0.05852341