120
Lattice="16.1826525 0.0 0.0 -6.473061 11.21167053 0.0 0.0 0.0 15.629376" Properties=species:S:1:pos:R:3:forces:R:3 energy=-180.34971331 stress="0.008296663031671671 0.000168521838662945 7.75819584347289e-09 0.000168521838662945 0.011301775999551523 -1.0173659875189712e-08 7.75819584347289e-09 -1.0173659875189712e-08 0.00886843530578124" free_energy=-180.34603188 pbc="T T T"
Mg       0.00000000       0.00000000       0.00000000      -0.00004542      -0.00078827      -0.00000233
Mg       0.00000003       1.86861179       2.60489605       0.00435329       0.00329350       0.00000326
Mg       3.23653050       0.00000000       0.00000000       0.00162256      -0.00068604      -0.00000508
Mg       3.23653053       1.86861179       2.60489605      -0.00365363       0.00807432       0.00000370
Mg       6.47306100       0.00000000       0.00000000       0.00114425       0.00185642      -0.00000206
Mg       6.47306103       1.86861179       2.60489605      -0.00598259      -0.00259210      -0.00000054
Mg       9.70959150       0.00000000       0.00000000      -0.00102618      -0.00344313      -0.00000701
Mg       9.70959153       1.86861179       2.60489605      -0.00705279       0.00387146       0.00000151
Mg      12.94612200       0.00000000       0.00000000      -0.00137054      -0.00102693      -0.00000162
Mg      12.94612203       1.86861179       2.60489605       0.00140729       0.00078382       0.00000164
Mg      -1.61826525       2.80291763       0.00000000      -0.00004837      -0.00078241      -0.00000247
Mg      -1.61826522       4.67152942       2.60489605       0.00434423       0.00329314       0.00000022
Mg       1.61826525       2.80291763       0.00000000       0.00162620      -0.00068883      -0.00000171
Mg       1.61826528       4.67152942       2.60489605      -0.00364711       0.00807222       0.00000332
Mg       4.85479575       2.80291763       0.00000000       0.00115082       0.00186700      -0.00000631
Mg       4.85479578       4.67152942       2.60489605      -0.00597855      -0.00260297      -0.00000033
Mg       8.09132625       2.80291763       0.00000000      -0.00103457      -0.00343166      -0.00000588
Mg       8.09132628       4.67152942       2.60489605      -0.00705500       0.00387202      -0.00000474
Mg      11.32785675       2.80291763       0.00000000      -0.00137953      -0.00101538      -0.00000024
Mg      11.32785678       4.67152942       2.60489605       0.00140154       0.00077873      -0.00000074
Mg      -3.23653050       5.60583526       0.00000000      -0.00005490      -0.00078086      -0.00000339
Mg      -3.23653047       7.47444706       2.60489605       0.00434700       0.00329411      -0.00000221
Mg       0.00000000       5.60583526       0.00000000       0.00162799      -0.00068919      -0.00000618
Mg       0.00000003       7.47444706       2.60489605      -0.00365161       0.00806916       0.00000005
Mg       3.23653050       5.60583526       0.00000000       0.00115350       0.00185935      -0.00000396
Mg       3.23653053       7.47444706       2.60489605      -0.00597791      -0.00260667      -0.00000285
Mg       6.47306100       5.60583526       0.00000000      -0.00102804      -0.00343331      -0.00000656
Mg       6.47306103       7.47444706       2.60489605      -0.00705039       0.00386429       0.00000252
Mg       9.70959150       5.60583526       0.00000000      -0.00138195      -0.00101453      -0.00000017
Mg       9.70959153       7.47444706       2.60489605       0.00140280       0.00077906      -0.00000438
Mg      -4.85479575       8.40875290       0.00000000      -0.00005621      -0.00078261      -0.00000180
Mg      -4.85479572      10.27736469       2.60489605       0.00434463       0.00329408      -0.00000481
Mg      -1.61826525       8.40875290       0.00000000       0.00161440      -0.00069274      -0.00000494
Mg      -1.61826522      10.27736469       2.60489605      -0.00365463       0.00807305       0.00000436
Mg       1.61826525       8.40875290       0.00000000       0.00114832       0.00185586      -0.00000296
Mg       1.61826528      10.27736469       2.60489605      -0.00598046      -0.00259726       0.00000199
Mg       4.85479575       8.40875290       0.00000000      -0.00102279      -0.00344430      -0.00000798
Mg       4.85479578      10.27736469       2.60489605      -0.00705012       0.00386466       0.00000028
Mg       8.09132625       8.40875290       0.00000000      -0.00137137      -0.00102231      -0.00000199
Mg       8.09132628      10.27736469       2.60489605       0.00140569       0.00077618      -0.00000256
Mg       0.00000000       0.00000000       5.20979195      -0.00004492      -0.00078268       0.00000354
Mg       0.00000003       1.86861179       7.81468800       0.00435626       0.00328897       0.00000614
Mg       3.23653050       0.00000000       5.20979195       0.00162150      -0.00069052       0.00000079
Mg       3.23653053       1.86861179       7.81468800      -0.00364950       0.00807199       0.00000304
Mg       6.47306100       0.00000000       5.20979195       0.00114656       0.00185392       0.00000468
Mg       6.47306103       1.86861179       7.81468800      -0.00599201      -0.00259627       0.00000690
Mg       9.70959150       0.00000000       5.20979195      -0.00103104      -0.00343573       0.00000212
Mg       9.70959153       1.86861179       7.81468800      -0.00705070       0.00386627       0.00000500
Mg      12.94612200       0.00000000       5.20979195      -0.00136836      -0.00102439      -0.00000059
Mg      12.94612203       1.86861179       7.81468800       0.00140974       0.00077517       0.00000036
Mg      -1.61826525       2.80291763       5.20979195      -0.00004813      -0.00078160      -0.00000017
Mg      -1.61826522       4.67152942       7.81468800       0.00435333       0.00329336       0.00000342
Mg       1.61826525       2.80291763       5.20979195       0.00162799      -0.00069083       0.00000241
Mg       1.61826528       4.67152942       7.81468800      -0.00364766       0.00807163       0.00000225
Mg       4.85479575       2.80291763       5.20979195       0.00114909       0.00185804       0.00000152
Mg       4.85479578       4.67152942       7.81468800      -0.00599125      -0.00260023       0.00000472
Mg       8.09132625       2.80291763       5.20979195      -0.00103122      -0.00343739      -0.00000232
Mg       8.09132628       4.67152942       7.81468800      -0.00705658       0.00387168       0.00000564
Mg      11.32785675       2.80291763       5.20979195      -0.00137414      -0.00101716      -0.00000127
Mg      11.32785678       4.67152942       7.81468800       0.00140618       0.00078027       0.00000133
Mg      -3.23653050       5.60583526       5.20979195      -0.00005185      -0.00077713       0.00000219
Mg      -3.23653047       7.47444706       7.81468800       0.00435106       0.00329455       0.00000580
Mg       0.00000000       5.60583526       5.20979195       0.00162666      -0.00069205      -0.00000191
Mg       0.00000003       7.47444706       7.81468800      -0.00365074       0.00807036       0.00000383
Mg       3.23653050       5.60583526       5.20979195       0.00115466       0.00184910       0.00000081
Mg       3.23653053       7.47444706       7.81468800      -0.00597962      -0.00260163       0.00000712
Mg       6.47306100       5.60583526       5.20979195      -0.00102611      -0.00344170      -0.00000034
Mg       6.47306103       7.47444706       7.81468800      -0.00705832       0.00386141       0.00000604
Mg       9.70959150       5.60583526       5.20979195      -0.00137738      -0.00102135      -0.00000451
Mg       9.70959153       7.47444706       7.81468800       0.00140392       0.00078116       0.00000404
Mg      -4.85479575       8.40875290       5.20979195      -0.00004982      -0.00078718      -0.00000036
Mg      -4.85479572      10.27736469       7.81468800       0.00434777       0.00329243       0.00000621
Mg      -1.61826525       8.40875290       5.20979195       0.00162715      -0.00069108       0.00000099
Mg      -1.61826522      10.27736469       7.81468800      -0.00365315       0.00807144       0.00000481
Mg       1.61826525       8.40875290       5.20979195       0.00115371       0.00185054      -0.00000335
Mg       1.61826528      10.27736469       7.81468800      -0.00598461      -0.00260067       0.00000378
Mg       4.85479575       8.40875290       5.20979195      -0.00102283      -0.00344170      -0.00000142
Mg       4.85479578      10.27736469       7.81468800      -0.00704981       0.00386440       0.00000625
Mg       8.09132625       8.40875290       5.20979195      -0.00136786      -0.00102353      -0.00000516
Mg       8.09132628      10.27736469       7.81468800       0.00140373       0.00077493       0.00000666
Mg       0.00000000       0.00000000      10.41958405      -0.00004569      -0.00078337       0.00000313
Mg       0.00000003       1.86861179      13.02447995       0.00435122       0.00329062      -0.00000972
Mg       3.23653050       0.00000000      10.41958405       0.00162469      -0.00068877       0.00000152
Mg       3.23653053       1.86861179      13.02447995      -0.00364968       0.00807165      -0.00000545
Mg       6.47306100       0.00000000      10.41958405       0.00114217       0.00185454       0.00000348
Mg       6.47306103       1.86861179      13.02447995      -0.00598477      -0.00259699      -0.00000674
Mg       9.70959150       0.00000000      10.41958405      -0.00102861      -0.00344744       0.00000169
Mg       9.70959153       1.86861179      13.02447995      -0.00705625       0.00387145      -0.00000497
Mg      12.94612200       0.00000000      10.41958405      -0.00137177      -0.00102345       0.00000588
Mg      12.94612203       1.86861179      13.02447995       0.00140635       0.00077182      -0.00000276
Mg      -1.61826525       2.80291763      10.41958405      -0.00004474      -0.00078109       0.00000331
Mg      -1.61826522       4.67152942      13.02447995       0.00435685       0.00329586      -0.00000135
Mg       1.61826525       2.80291763      10.41958405       0.00163370      -0.00068599       0.00000161
Mg       1.61826528       4.67152942      13.02447995      -0.00364714       0.00807406      -0.00000742
Mg       4.85479575       2.80291763      10.41958405       0.00114278       0.00185880      -0.00000243
Mg       4.85479578       4.67152942      13.02447995      -0.00598136      -0.00260401      -0.00000723
Mg       8.09132625       2.80291763      10.41958405      -0.00103328      -0.00343891       0.00000620
Mg       8.09132628       4.67152942      13.02447995      -0.00705883       0.00387102      -0.00000451
Mg      11.32785675       2.80291763      10.41958405      -0.00137452      -0.00101894      -0.00000022
Mg      11.32785678       4.67152942      13.02447995       0.00140387       0.00078555      -0.00000145
Mg      -3.23653050       5.60583526      10.41958405      -0.00004803      -0.00077770       0.00000511
Mg      -3.23653047       7.47444706      13.02447995       0.00434513       0.00329090      -0.00000346
Mg       0.00000000       5.60583526      10.41958405       0.00163169      -0.00068871       0.00000179
Mg       0.00000003       7.47444706      13.02447995      -0.00365256       0.00806969      -0.00000488
Mg       3.23653050       5.60583526      10.41958405       0.00114550       0.00185909       0.00000095
Mg       3.23653053       7.47444706      13.02447995      -0.00597454      -0.00260540      -0.00000086
Mg       6.47306100       5.60583526      10.41958405      -0.00103666      -0.00343900       0.00000664
Mg       6.47306103       7.47444706      13.02447995      -0.00704845       0.00386110      -0.00000320
Mg       9.70959150       5.60583526      10.41958405      -0.00137674      -0.00101244       0.00000565
Mg       9.70959153       7.47444706      13.02447995       0.00139856       0.00077676      -0.00000189
Mg      -4.85479575       8.40875290      10.41958405      -0.00005362      -0.00078175       0.00000747
Mg      -4.85479572      10.27736469      13.02447995       0.00434726       0.00328674      -0.00000312
Mg      -1.61826525       8.40875290      10.41958405       0.00161710      -0.00069186       0.00000202
Mg      -1.61826522      10.27736469      13.02447995      -0.00365020       0.00806591      -0.00000545
Mg       1.61826525       8.40875290      10.41958405       0.00114753       0.00185536       0.00000433
Mg       1.61826528      10.27736469      13.02447995      -0.00597829      -0.00260328      -0.00000407
Mg       4.85479575       8.40875290      10.41958405      -0.00102338      -0.00344848       0.00000829
Mg       4.85479578      10.27736469      13.02447995      -0.00704701       0.00385949      -0.00000415
Mg       8.09132625       8.40875290      10.41958405      -0.00137208      -0.00101994       0.00000495
Mg       8.09132628      10.27736469      13.02447995       0.00141049       0.00076702      -0.00000731
120
Lattice="16.1826525 0.0 0.0 -6.473061 11.21167053 0.0 0.0 0.0 15.629376" Properties=species:S:1:pos:R:3:forces:R:3 energy=-180.33604272 stress="0.008321421862555243 0.00017261593160803162 -1.7759527651696966e-06 0.00017261593160803162 0.011323148281206027 -2.0465721178497426e-06 -1.7759527651696966e-06 -2.0465721178497426e-06 0.008895882629271731" free_energy=-180.33236591 pbc="T T T"
Mg       9.70524287      11.20646248       0.00275858       0.00097080       0.01362989       0.00328843
Mg       0.00132225       1.87313525       2.61160277      -0.00828112      -0.02140285      -0.01504905
Mg       3.22736157       0.00264651      15.62258644       0.00743779      -0.00997797       0.01435467
Mg       3.23754887       1.87647263       2.59904223       0.00226882      -0.02150211       0.01536015
Mg       6.46650806       0.00267836      15.62308596       0.02732745      -0.00642091       0.01022809
Mg       6.48033928       1.86547264       2.61141084      -0.02118360      -0.00636227      -0.00848889
Mg       3.23307262      11.20972161      15.62822333      -0.00338973       0.01056918      -0.00785232
Mg       9.69691864       1.87365861       2.61097010       0.03210625      -0.00501332      -0.01880892
Mg       6.46990554      11.21098382      15.62107977       0.00079640      -0.00421630       0.02021271
Mg      12.94812758       1.86801443       2.60261510      -0.00935616      -0.00517067       0.00800152
Mg      14.55748587       2.80287862       0.00251930       0.01705030      -0.00760427      -0.00785365
Mg      -1.62637816       4.66900725       2.60656714       0.01152201       0.00628126      -0.00561551
Mg       1.61462409       2.80491230       0.00062924       0.00026102      -0.01184646      -0.00285937
Mg       1.61422522       4.65981502       2.60548903       0.00461712       0.03353259      -0.00418159
Mg       4.85563262       2.79239649       0.00086477      -0.00262893       0.01821091       0.00170693
Mg       4.85928553       4.66626185       2.60702446      -0.01082109       0.01244004      -0.00945442
Mg       8.09149258       2.81349394       0.00159935      -0.00587950      -0.02699665      -0.00596585
Mg       8.09252590       4.66280787       2.60766730      -0.00207061       0.02798209       0.00217962
Mg      11.32527345       2.80049210       0.00230971      -0.00582160       0.00425183       0.00082382
Mg      11.33218312       4.67358105       2.61163434      -0.01225356      -0.00010612      -0.02382039
Mg      -3.23076132       5.59993950      15.61883445      -0.02033263       0.01182952       0.03862244
Mg      -3.23863722       7.47720165       2.60243474       0.01090182      -0.00788158       0.00090378
Mg      -0.00434854       5.60522356       0.00678346       0.00828553      -0.00271990      -0.02318321
Mg      -0.00224489       7.46985319       2.59466366       0.00760190       0.01493661       0.02225595
Mg       3.23231576       5.60464761      15.62479331       0.01418942      -0.00520651       0.01618440
Mg       3.23623818       7.47942717       2.60988214      -0.00177660      -0.02360118      -0.00525974
Mg       6.47392813       5.60045019      15.62687514      -0.00567263       0.00664881       0.00825007
Mg       6.47490822       7.46665674       2.60801865      -0.00791292       0.01616489       0.00410063
Mg       9.70792407       5.60730702      15.62591019       0.01038382      -0.00234188       0.01203449
Mg       9.71142677       7.47995961       2.60174064      -0.00568254      -0.00942965       0.00602864
Mg      -4.85237787       8.40609764       0.00117267      -0.00125787      -0.00201152      -0.01457058
Mg      -4.84967727      10.27818729       2.60559047      -0.00842235       0.00957186       0.00581928
Mg      -1.61513109       8.40849211      15.62840073      -0.01307920       0.00189517      -0.00173163
Mg      -1.61507507      10.27677484       2.59394299      -0.00173856       0.01282260       0.02379741
Mg       1.61896366       8.40673009      15.62165181      -0.00829750       0.00546533       0.01667349
Mg       1.62851330      10.27285446       2.60396017      -0.03124373       0.00181225      -0.00798558
Mg       4.85405449       8.40989806       0.01294441       0.00780813      -0.01064250      -0.01784592
Mg       4.84697170      10.28408653       2.60415756       0.01913033      -0.00261649       0.00785448
Mg       8.09310123       8.40135308      15.61972392      -0.00282701       0.00550101       0.01796682
Mg       8.08034143      10.27693540       2.59662280       0.01965484      -0.00210901       0.01851554
Mg      -6.46290739      11.20710267       5.21835778      -0.02142544       0.00023789      -0.02538715
Mg      -0.00564865       1.86137432       7.81673889       0.01022646       0.01580250       0.00240956
Mg       3.24043343       0.00603300       5.21277825       0.01058049      -0.01029724      -0.01299611
Mg       3.23711045       1.86744589       7.82274510      -0.00064967       0.00693806      -0.02772136
Mg       0.01327466      11.20592029       5.21091320      -0.03017622       0.01120909      -0.01023590
Mg       6.47926129       1.87238306       7.81073893      -0.02069367      -0.00090671       0.00612539
Mg       9.71544968       0.00698980       5.21258164      -0.00360234      -0.00702475       0.00223530
Mg       9.70572423       1.87923339       7.82070484       0.01084334      -0.02098922      -0.00588100
Mg       6.47733448      11.20335741       5.21464690       0.01018612       0.02160102      -0.01782580
Mg      12.94103178       1.86733646       7.81876946       0.00989999      -0.00223649      -0.00607592
Mg      -1.61576752       2.80907351       5.21028037      -0.00894847      -0.02369226       0.00670842
Mg      -1.62025643       4.67261292       7.81434728       0.01009525      -0.00337908       0.00585983
Mg       1.61296951       2.79615273       5.20640756       0.00666067       0.01281444       0.02037737
Mg       1.61998450       4.67546450       7.80626752      -0.01102819      -0.00991221       0.00091398
Mg       4.84778594       2.81054628       5.20961690       0.02168241      -0.01761056       0.00275144
Mg       4.85613901       4.67583796       7.80806380      -0.00896474      -0.00369235       0.00632592
Mg       8.09644350       2.80029612       5.21450405      -0.01309046       0.01308724      -0.00109590
Mg       8.09323325       4.67715264       7.81227420      -0.01512193      -0.00501845       0.01154917
Mg      11.33526057       2.79195105       5.20640100      -0.00809447       0.01595886       0.00784716
Mg      11.32643306       4.65929996       7.81545040       0.01044360       0.03242237       0.00683678
Mg      12.93974733       5.60171385       5.21094852       0.00604128       0.01410697       0.00989249
Mg      -3.22745902       7.48389580       7.82215556      -0.01731790      -0.02865848      -0.01164214
Mg      -0.00683212       5.60780146       5.20202180       0.00592920       0.00037747       0.00767639
Mg       0.00078916       7.47509218       7.80941871      -0.00174433       0.00975403       0.00634571
Mg       3.22905418       5.60345435       5.20305772       0.01478042       0.01400619       0.00411870
Mg       3.23396170       7.47722811       7.81351892       0.00127992      -0.00611052       0.00378881
Mg       6.47690522       5.61433337       5.21781404      -0.01556041      -0.01769931      -0.02523501
Mg       6.47352638       7.47071200       7.80766009       0.00165461       0.01800872       0.03374611
Mg       9.70729525       5.60741432       5.21211807       0.00798525      -0.01397165      -0.01183695
Mg       9.70870511       7.47280948       7.81021550       0.01457485       0.00852329       0.02273219
Mg      11.32896672       8.40406474       5.21423163       0.00854002       0.00980884      -0.00443251
Mg      -4.84908952      10.27906741       7.82116356      -0.00849911       0.00021828      -0.00969929
Mg      -1.62205403       8.40794611       5.20679861       0.00717176       0.00258655      -0.00704987
Mg      -1.61493551      10.27413270       7.81183454      -0.00003644       0.02451792       0.00700451
Mg       1.62207999       8.41159225       5.20956845      -0.01417117      -0.00604418      -0.00501887
Mg       1.62124425      10.28583387       7.80946029      -0.00380574      -0.01150145       0.01926018
Mg       4.85302061       8.42432097       5.22596679       0.00717999      -0.03913809      -0.04698543
Mg       4.86003459      10.27416376       7.81461485      -0.01849587       0.01886158       0.01703113
Mg       8.09639462       8.41047647       5.21338155      -0.00330392       0.00096506      -0.01950838
Mg       8.08795032      10.27851714       7.80716527       0.01238852      -0.00476631       0.03830441
Mg       9.70943003      11.20062053      10.43028502      -0.00696103       0.02759953      -0.02595812
Mg       0.00619326       1.87161069      13.02168635      -0.01636944      -0.00118634       0.01158622
Mg      -3.24507931      11.21159485      10.42805580       0.01702933       0.00374439      -0.01365152
Mg       3.24022325       1.86113809      13.02294014      -0.00635390       0.02254519      -0.00257022
Mg       6.46098803       0.00752258      10.42083346       0.02915921      -0.00129235      -0.00477791
Mg       6.46693137       1.86862188      13.02556572       0.02101850      -0.00595005      -0.01092098
Mg       9.70966028       0.00135437      10.41709757      -0.00772918      -0.00630721       0.00212496
Mg       9.70796268       1.87696908      13.02044991      -0.00405071      -0.03087886       0.01804532
Mg       6.46866984      11.20959189      10.42925989       0.01329780      -0.00532200      -0.02335721
Mg      12.94140103       1.86888177      13.02686061       0.01198233       0.00901647       0.00076677
Mg      14.56636927       2.79239582      10.42122936       0.00100922       0.02287332       0.00320831
Mg      -1.62184197       4.67703447      13.02965812       0.02141622      -0.02019556      -0.01939434
Mg       1.62233360       2.80554195      10.41004669      -0.01726604      -0.00908121       0.01611527
Mg       1.61682703       4.65641654      13.02722228       0.00363929       0.04367166      -0.01086294
Mg       4.84906004       2.80696830      10.40805301       0.01902952       0.00083609       0.02185003
Mg       4.86546501       4.66602674      13.02624497      -0.03315472       0.00926131      -0.01073069
Mg       8.09655784       2.81083688      10.42350202      -0.02540334      -0.01552252      -0.01058482
Mg       8.10004028       4.66422424      13.01915486      -0.02341353       0.02493741       0.01192274
Mg      11.33186565       2.79512474      10.42692564       0.00234797       0.02101075      -0.00783581
Mg      11.32387753       4.67681001      13.02734403       0.01101696      -0.01172677      -0.01373932
Mg      -3.22778908       5.61029605      10.42358830      -0.01547996      -0.01165560      -0.01179833
Mg      -3.23402850       7.46411304      13.02753549      -0.01549965       0.04266265      -0.01000109
Mg       0.00837391       5.60487016      10.41357721      -0.01878475      -0.00016812       0.01667413
Mg      -0.01059983       7.48297869      13.01762209       0.03079193      -0.03305563       0.01553753
Mg       3.23414654       5.60367354      10.41176389       0.01020045       0.01136653       0.02467706
Mg       3.23138309       7.48107215      13.03368159       0.01253741      -0.03690092      -0.03067744
Mg       6.47036199       5.61246316      10.42109573       0.00221956      -0.00844404      -0.00609207
Mg       6.47423800       7.47463373      13.02564324      -0.01783525      -0.00342690       0.00199174
Mg       9.70427317       5.60271629      10.41598148       0.02400153       0.01120111       0.00053103
Mg       9.70804369       7.47529825      13.01172685       0.01224021       0.00181796       0.02399523
Mg      -4.85079666       8.41733958      10.41694550      -0.00260495      -0.03305075       0.01000579
Mg      -4.86224592      10.28178355      13.02663055       0.01881716      -0.02200823       0.00834266
Mg      -1.61347816       8.42205734      10.42614573      -0.00803865      -0.02150627      -0.01862406
Mg      -1.61639819      10.27499701      13.02879897      -0.01633109       0.01098988      -0.00503441
Mg       1.61698164       8.40715355      10.41716838       0.00746522       0.01142386      -0.00783225
Mg       1.62445576      10.26651886      13.01555260      -0.02045725       0.03568087       0.01266499
Mg       4.85587002       8.41193522      10.41881681      -0.00821782      -0.01418308       0.00589054
Mg       4.85783440      10.27141410      13.02828148      -0.01788361       0.01223181      -0.00451284
Mg       8.09530916       8.41418686      10.42926833      -0.01047366      -0.01376883      -0.03781372
Mg       8.08934569      10.28102474      13.02621106       0.00302581      -0.00063892       0.00406576
120
Lattice="16.1826525 0.0 0.0 -6.473061 11.21167053 0.0 0.0 0.0 15.629376" Properties=species:S:1:pos:R:3:forces:R:3 energy=-180.29597084 stress="0.008304968944906977 0.0001719828366128659 -3.758387135241863e-07 0.0001719828366128659 0.011274052389418065 -3.1838749447316864e-06 -3.758387135241863e-07 -3.1838749447316864e-06 0.008885180968932037" free_energy=-180.29231109 pbc="T T T"
Mg       9.70089475      11.20125971       0.00551842      -0.00115219       0.02888481       0.00452608
Mg       0.00264146       1.87765019       2.61830340      -0.02054101      -0.04867250      -0.03536826
Mg       3.21819575       0.00528877      15.61580251       0.02074681      -0.02223634       0.03217957
Mg       3.23856832       1.88432484       2.59319449       0.00930141      -0.04912314       0.02680574
Mg       6.45996606       0.00535402      15.61679982       0.05604224      -0.01682935       0.01915039
Mg       6.48760953       1.86233079       2.61792220      -0.04174469      -0.00648602      -0.01694048
Mg       3.22961339      11.20777672      15.62706770      -0.00831235       0.02702691      -0.01427420
Mg       9.68425863       1.87870330       2.61703648       0.06871185      -0.01725777      -0.03572046
Mg       6.46675048      11.21029531      15.61279151       0.00272224      -0.00397270       0.04032580
Mg      12.95012967       1.86741495       2.60033728      -0.01825643      -0.01283691       0.01527259
Mg      14.55059115       2.80283646       0.00503532       0.03588648      -0.01704541      -0.01475336
Mg      -1.63448632       4.66648742       2.60823589       0.01672676       0.01204825      -0.01074713
Mg       1.61098296       2.80690215       0.00125723      -0.00351695      -0.02225779      -0.00561462
Mg       1.61018706       4.64811385       2.60608045       0.01391401       0.06361095      -0.00988015
Mg       4.85646849       2.78188241       0.00173017      -0.00616661       0.05086196       0.00222487
Mg       4.86377120       4.66099909       2.60914927      -0.01855362       0.03016905      -0.02204201
Mg       8.09165683       2.82405926       0.00319621      -0.00882936      -0.06371874      -0.01210964
Mg       8.09372491       4.65409718       2.61043948      -0.00224583       0.05357609       0.00431658
Mg      11.32268801       2.79806802       0.00461973      -0.01188373       0.01043630       0.00383019
Mg      11.33650489       4.67563245       2.61836310      -0.02786428      -0.00392360      -0.04560828
Mg      -3.22500013       5.59404832      15.60830807      -0.04024702       0.02180023       0.07621478
Mg      -3.24073945       7.47995288       2.59997358       0.01656034      -0.01741430       0.00090408
Mg      -0.00869339       5.60461050       0.01355770       0.01891396      -0.00770544      -0.04758992
Mg      -0.00448661       7.46526526       2.58444017       0.02039994       0.02362819       0.04558026
Mg       3.22810668       5.60345772      15.62021703       0.02411090      -0.01058409       0.03120108
Mg       3.23594550       7.48439775       2.61486619       0.00445558      -0.04742416      -0.01187662
Mg       6.47479335       5.59506758      15.62437741      -0.00942796       0.01339057       0.01116885
Mg       6.47675249       7.45887259       2.61114264      -0.01153793       0.02850662       0.00666482
Mg       9.70626085       5.60877766      15.62244906       0.01955625      -0.00354403       0.02196512
Mg       9.71326001       7.48546835       2.59858772      -0.01456522      -0.02070768       0.01196629
Mg      -4.84996044       8.40344148       0.00233956      -0.00533627       0.00074386      -0.02857259
Mg      -4.84456210      10.27901359       2.60628707      -0.02028316       0.01265480       0.01059771
Mg      -1.61200201       8.40823200      15.62742452      -0.02494119       0.00323672      -0.00513944
Mg      -1.61188534      10.27618993       2.58299945      -0.00389530       0.02031818       0.04463093