120
Lattice="15.9435 0.0 0.0 -6.3774 11.04598082 0.0 0.0 0.0 15.3984" Properties=species:S:1:pos:R:3:forces:R:3 energy=-180.53392783 stress="-0.0012128842131210807 0.00036670047008090755 -5.261592193119587e-09 0.00036670047008090755 0.0017517815474042899 1.647134258320592e-08 -5.261592193119587e-09 1.647134258320592e-08 -0.0008507039625378111" free_energy=-180.53300763 pbc="T T T"
Mg       0.00000000       0.00000000       0.00000000       0.00007065      -0.00129174       0.00000386
Mg       0.00000003       1.84099684       2.56640005      -0.00114822       0.00354381       0.00000803
Mg       3.18870000       0.00000000       0.00000000      -0.00093223       0.00007933       0.00000313
Mg       3.18870003       1.84099684       2.56640005       0.00371533       0.00218715       0.00000818
Mg       6.37740000       0.00000000       0.00000000       0.00268203      -0.00565708       0.00000294
Mg       6.37740003       1.84099684       2.56640005      -0.00178980       0.00102147       0.00000833
Mg       9.56610000       0.00000000       0.00000000      -0.00248873       0.00325329       0.00000330
Mg       9.56610003       1.84099684       2.56640005      -0.00004357       0.00341243       0.00000760
Mg      12.75480000       0.00000000       0.00000000       0.00131228      -0.00239737       0.00000350
Mg      12.75480003       1.84099684       2.56640005       0.00165092      -0.00011200       0.00000890
Mg      -1.59435000       2.76149521       0.00000000       0.00007113      -0.00129082       0.00000368
Mg      -1.59434997       4.60249205       2.56640005      -0.00114909       0.00354278       0.00000799
Mg       1.59435000       2.76149521       0.00000000      -0.00093158       0.00007892       0.00000224
Mg       1.59435003       4.60249205       2.56640005       0.00371448       0.00218730       0.00000923
Mg       4.78305000       2.76149521       0.00000000       0.00268197      -0.00565705       0.00000321
Mg       4.78305003       4.60249205       2.56640005      -0.00179025       0.00102028       0.00000977
Mg       7.97175000       2.76149521       0.00000000      -0.00248989       0.00325201       0.00000292
Mg       7.97175003       4.60249205       2.56640005      -0.00004302       0.00341250       0.00000688
Mg      11.16045000       2.76149521       0.00000000       0.00131243      -0.00239677       0.00000334
Mg      11.16045003       4.60249205       2.56640005       0.00164997      -0.00011014       0.00000846
Mg      -3.18870000       5.52299041       0.00000000       0.00007154      -0.00129132       0.00000457
Mg      -3.18869997       7.36398725       2.56640005      -0.00115026       0.00354271       0.00000844
Mg       0.00000000       5.52299041       0.00000000      -0.00093148       0.00007771       0.00000279
Mg       0.00000003       7.36398725       2.56640005       0.00371555       0.00218770       0.00000915
Mg       3.18870000       5.52299041       0.00000000       0.00268128      -0.00565786       0.00000283
Mg       3.18870003       7.36398725       2.56640005      -0.00178887       0.00102029       0.00000878
Mg       6.37740000       5.52299041       0.00000000      -0.00248832       0.00325192       0.00000324
Mg       6.37740003       7.36398725       2.56640005      -0.00004048       0.00341292       0.00000760
Mg       9.56610000       5.52299041       0.00000000       0.00131080      -0.00239755       0.00000367
Mg       9.56610003       7.36398725       2.56640005       0.00165064      -0.00011105       0.00000884
Mg      -4.78305000       8.28448562       0.00000000       0.00007141      -0.00129166       0.00000358
Mg      -4.78304997      10.12548246       2.56640005      -0.00114970       0.00354265       0.00000795
Mg      -1.59435000       8.28448562       0.00000000      -0.00093213       0.00007924       0.00000393
Mg      -1.59434997      10.12548246       2.56640005       0.00371473       0.00218686       0.00000929
Mg       1.59435000       8.28448562       0.00000000       0.00268151      -0.00565792       0.00000350
Mg       1.59435003      10.12548246       2.56640005      -0.00179006       0.00101923       0.00000696
Mg       4.78305000       8.28448562       0.00000000      -0.00248849       0.00325350       0.00000227
Mg       4.78305003      10.12548246       2.56640005      -0.00004269       0.00341244       0.00000748
Mg       7.97175000       8.28448562       0.00000000       0.00131218      -0.00239746       0.00000326
Mg       7.97175003      10.12548246       2.56640005       0.00165037      -0.00011180       0.00000922
Mg       0.00000000       0.00000000       5.13279995       0.00007244      -0.00129050       0.00000435
Mg       0.00000003       1.84099684       7.69920000      -0.00114948       0.00354351      -0.00000453
Mg       3.18870000       0.00000000       5.13279995      -0.00093173       0.00007963       0.00000422
Mg       3.18870003       1.84099684       7.69920000       0.00371510       0.00218626      -0.00000407
Mg       6.37740000       0.00000000       5.13279995       0.00268099      -0.00565709       0.00000603
Mg       6.37740003       1.84099684       7.69920000      -0.00179013       0.00102072      -0.00000244
Mg       9.56610000       0.00000000       5.13279995      -0.00249068       0.00325303       0.00000327
Mg       9.56610003       1.84099684       7.69920000      -0.00004247       0.00341213      -0.00000315
Mg      12.75480000       0.00000000       5.13279995       0.00131074      -0.00239712       0.00000309
Mg      12.75480003       1.84099684       7.69920000       0.00165066      -0.00011057      -0.00000281
Mg      -1.59435000       2.76149521       5.13279995       0.00007251      -0.00128986       0.00000348
Mg      -1.59434997       4.60249205       7.69920000      -0.00114872       0.00354370      -0.00000335
Mg       1.59435000       2.76149521       5.13279995      -0.00092983       0.00007959       0.00000382
Mg       1.59435003       4.60249205       7.69920000       0.00371589       0.00218702      -0.00000506
Mg       4.78305000       2.76149521       5.13279995       0.00268160      -0.00565613       0.00000529
Mg       4.78305003       4.60249205       7.69920000      -0.00179022       0.00101903      -0.00000350
Mg       7.97175000       2.76149521       5.13279995      -0.00248878       0.00325297       0.00000481
Mg       7.97175003       4.60249205       7.69920000      -0.00004264       0.00341176      -0.00000231
Mg      11.16045000       2.76149521       5.13279995       0.00131006      -0.00239693       0.00000307
Mg      11.16045003       4.60249205       7.69920000       0.00165158      -0.00011161      -0.00000210
Mg      -3.18870000       5.52299041       5.13279995       0.00007320      -0.00129049       0.00000428
Mg      -3.18869997       7.36398725       7.69920000      -0.00114958       0.00354301      -0.00000317
Mg       0.00000000       5.52299041       5.13279995      -0.00093079       0.00007900       0.00000494
Mg       0.00000003       7.36398725       7.69920000       0.00371489       0.00218642      -0.00000422
Mg       3.18870000       5.52299041       5.13279995       0.00268127      -0.00565582       0.00000629
Mg       3.18870003       7.36398725       7.69920000      -0.00178969       0.00101971      -0.00000241
Mg       6.37740000       5.52299041       5.13279995      -0.00249018       0.00325324       0.00000327
Mg       6.37740003       7.36398725       7.69920000      -0.00004196       0.00341063      -0.00000253
Mg       9.56610000       5.52299041       5.13279995       0.00131297      -0.00239597       0.00000371
Mg       9.56610003       7.36398725       7.69920000       0.00165205      -0.00011191      -0.00000313
Mg      -4.78305000       8.28448562       5.13279995       0.00007214      -0.00129080       0.00000432
Mg      -4.78304997      10.12548246       7.69920000      -0.00115018       0.00354282      -0.00000382
Mg      -1.59435000       8.28448562       5.13279995      -0.00093154       0.00007965       0.00000543
Mg      -1.59434997      10.12548246       7.69920000       0.00371494       0.00218718      -0.00000383
Mg       1.59435000       8.28448562       5.13279995       0.00268181      -0.00565692       0.00000568
Mg       1.59435003      10.12548246       7.69920000      -0.00179101       0.00101987      -0.00000252
Mg       4.78305000       8.28448562       5.13279995      -0.00249039       0.00325332       0.00000422
Mg       4.78305003      10.12548246       7.69920000      -0.00004193       0.00341244      -0.00000378
Mg       7.97175000       8.28448562       5.13279995       0.00131275      -0.00239668       0.00000357
Mg       7.97175003      10.12548246       7.69920000       0.00165122      -0.00011158      -0.00000323
Mg       0.00000000       0.00000000      10.26560005       0.00007245      -0.00129017      -0.00000878
Mg       0.00000003       1.84099684      12.83199995      -0.00115050       0.00354322      -0.00000458
Mg       3.18870000       0.00000000      10.26560005      -0.00093235       0.00007972      -0.00000984
Mg       3.18870003       1.84099684      12.83199995       0.00371609       0.00218775      -0.00000391
Mg       6.37740000       0.00000000      10.26560005       0.00268243      -0.00565703      -0.00000850
Mg       6.37740003       1.84099684      12.83199995      -0.00179005       0.00102212      -0.00000520
Mg       9.56610000       0.00000000      10.26560005      -0.00248856       0.00325400      -0.00000737
Mg       9.56610003       1.84099684      12.83199995      -0.00004230       0.00341270      -0.00000499
Mg      12.75480000       0.00000000      10.26560005       0.00131227      -0.00239717      -0.00000734
Mg      12.75480003       1.84099684      12.83199995       0.00164943      -0.00011266      -0.00000467
Mg      -1.59435000       2.76149521      10.26560005       0.00007273      -0.00129022      -0.00000823
Mg      -1.59434997       4.60249205      12.83199995      -0.00114989       0.00354245      -0.00000377
Mg       1.59435000       2.76149521      10.26560005      -0.00093210       0.00007932      -0.00000990
Mg       1.59435003       4.60249205      12.83199995       0.00371510       0.00218637      -0.00000458
Mg       4.78305000       2.76149521      10.26560005       0.00268281      -0.00565714      -0.00000865
Mg       4.78305003       4.60249205      12.83199995      -0.00178878       0.00102254      -0.00000445
Mg       7.97175000       2.76149521      10.26560005      -0.00248964       0.00325292      -0.00000818
Mg       7.97175003       4.60249205      12.83199995      -0.00004304       0.00341186      -0.00000367
Mg      11.16045000       2.76149521      10.26560005       0.00131124      -0.00239684      -0.00000776
Mg      11.16045003       4.60249205      12.83199995       0.00165052      -0.00010993      -0.00000442
Mg      -3.18870000       5.52299041      10.26560005       0.00007193      -0.00129021      -0.00000753
Mg      -3.18869997       7.36398725      12.83199995      -0.00114935       0.00354341      -0.00000472
Mg       0.00000000       5.52299041      10.26560005      -0.00093184       0.00007794      -0.00000865
Mg       0.00000003       7.36398725      12.83199995       0.00371632       0.00218804      -0.00000367
Mg       3.18870000       5.52299041      10.26560005       0.00268120      -0.00565700      -0.00000762
Mg       3.18870003       7.36398725      12.83199995      -0.00178934       0.00102170      -0.00000367
Mg       6.37740000       5.52299041      10.26560005      -0.00248998       0.00325241      -0.00000722
Mg       6.37740003       7.36398725      12.83199995      -0.00004354       0.00341276      -0.00000540
Mg       9.56610000       5.52299041      10.26560005       0.00131122      -0.00239741      -0.00000655
Mg       9.56610003       7.36398725      12.83199995       0.00164820      -0.00011057      -0.00000345
Mg      -4.78305000       8.28448562      10.26560005       0.00007207      -0.00128960      -0.00000875
Mg      -4.78304997      10.12548246      12.83199995      -0.00115039       0.00354339      -0.00000429
Mg      -1.59435000       8.28448562      10.26560005      -0.00093094       0.00007885      -0.00000983
Mg      -1.59434997      10.12548246      12.83199995       0.00371454       0.00218755      -0.00000444
Mg       1.59435000       8.28448562      10.26560005       0.00268186      -0.00565643      -0.00000873
Mg       1.59435003      10.12548246      12.83199995      -0.00179014       0.00102165      -0.00000365
Mg       4.78305000       8.28448562      10.26560005      -0.00249008       0.00325303      -0.00000815
Mg       4.78305003      10.12548246      12.83199995      -0.00004246       0.00341326      -0.00000400
Mg       7.97175000       8.28448562      10.26560005       0.00131318      -0.00239703      -0.00000780
Mg       7.97175003      10.12548246      12.83199995       0.00164911      -0.00011129      -0.00000437
120
Lattice="15.9435 0.0 0.0 -6.3774 11.04598082 0.0 0.0 0.0 15.3984" Properties=species:S:1:pos:R:3:forces:R:3 energy=-180.51855214 stress="-0.001267720520716264 0.0003649299661532048 -5.911189738414138e-06 0.0003649299661532048 0.0017253130985145381 -4.954559876199138e-06 -5.911189738414138e-06 -4.954559876199138e-06 -0.0008403611889728557" free_energy=-180.51762764 pbc="T T T"
Mg       0.00050975       0.00109488      15.38837595       0.00953967      -0.01749769       0.02768278
Mg       0.00786888       1.84235064       2.56072328      -0.03772519       0.00101302       0.00317683
Mg       3.19769877       0.00519945       0.00110237      -0.03461356      -0.00848808       0.00371245
Mg       3.18134099       1.84892951       2.56367777       0.02889462      -0.02593620       0.00108410
Mg      -0.00062106      11.04573847       0.00231977       0.02107423      -0.00027748      -0.00700163
Mg       6.38147612       1.83637498       2.56202644      -0.02078391       0.01900189       0.00589237
Mg       9.56405180       0.00135744      15.39242049       0.00790265       0.02453498       0.01146520
Mg       9.56732089       1.85619048       2.57453102       0.00160578      -0.03381065      -0.03656042
Mg       6.38252453      11.03275414       0.00182409      -0.01392559       0.03998139      -0.00886250
Mg      12.75061218       1.83133183       2.57072408       0.01855627       0.02713054      -0.01120991
Mg      14.34864979       2.75567132      15.39707112      -0.01230733       0.00898696       0.00360335
Mg      -1.59963594       4.60598766       2.56477167       0.01574949      -0.01350350       0.02213020
Mg       1.58612178       2.76781284       0.00452975       0.02255838      -0.01868751      -0.02743762
Mg       1.59556250       4.60589675       2.56559918      -0.00446567       0.01557352       0.01946479
Mg       4.78170682       2.75643383      15.39671557      -0.00158931       0.02655973       0.00347222
Mg       4.78304499       4.60140391       2.56876170      -0.00039536       0.00758602      -0.01272085
Mg       7.97388279       2.77956444      15.39760929      -0.00990845      -0.05054663       0.00455464
Mg       7.96969912       4.60511591       2.56218890      -0.00314492       0.00432672       0.00988980
Mg      11.16151490       2.76491692       0.00394107       0.01457238      -0.02242168      -0.00500060
Mg      11.16695138       4.60575437       2.56435730      -0.01370139       0.00126456       0.00794114
Mg      -3.18301047       5.52541401       0.00587572      -0.00531800      -0.00359938      -0.02496875
Mg      -3.19927188       7.36741416       2.56189479       0.02000137      -0.00119049       0.01998860
Mg       0.00014496       5.52055831       0.01169062      -0.00941975       0.02413472      -0.02945713
Mg      -0.00220993       7.37044672       2.57815919       0.00820135      -0.00997302      -0.02284418
Mg       3.18184962       5.52734021       0.00249469       0.03379217      -0.01576605      -0.01120261
Mg       3.19208665       7.36900588       2.56781978      -0.01216107       0.00000624       0.00746516
Mg       6.37727089       5.52640494       0.00111038      -0.02836154      -0.00349120       0.00340304
Mg       6.37605992       7.37168972       2.57219108       0.00294234      -0.01326698      -0.01134686
Mg       9.56325004       5.52052948       0.00168520       0.02072431       0.02244294      -0.00836581
Mg       9.55738375       7.36499431       2.56497524       0.01642860       0.00246512      -0.01041745
Mg      -4.78018569       8.28236633      15.38631580      -0.01117301      -0.00132472       0.02667028
Mg      -4.78636520      10.12241598       2.56005068       0.00804644       0.01447173       0.00187491
Mg      -1.59111433       8.29193513       0.00701397      -0.00620692      -0.02767912      -0.01954647
Mg      -1.58916983      10.12259846       2.56081721      -0.02422712       0.02007827       0.03553955
Mg       1.60187753       8.29051981      15.39546768      -0.01674526      -0.01336304       0.00814867
Mg       1.59355640      10.13957569       2.56907491       0.01165230      -0.02705056      -0.01113551
Mg       4.78709719       8.29012856       0.00585247      -0.01634693      -0.01401045      -0.01818937
Mg       4.78482301      10.12654442       2.56383375      -0.01846679       0.01368998       0.01223578
Mg       7.96645188       8.28102646      15.38761203       0.02990939       0.00817204       0.03962984
Mg       7.96748891      10.12849149       2.57859928       0.01640728      -0.00579471      -0.04098962
Mg      15.94035652       0.00155980       5.12289169       0.01422748      -0.00478174       0.02692190
Mg       0.00761969       1.83469798       7.70298231      -0.01688398       0.02446673      -0.01054388
Mg       3.18471039       0.00224962       5.13933426       0.00293394      -0.01731975      -0.03193218
Mg       3.19320162       1.84309790       7.69493449       0.00443821       0.00873031       0.01322517
Mg       6.37323412       0.00328452       5.13582512      -0.00126147      -0.01573719      -0.01028225
Mg       6.38684860       1.84202169       7.70202206      -0.02296839       0.00706943      -0.01128099
Mg       3.17870078      11.03958122       5.13052961       0.02542293       0.00945529      -0.00076263
Mg       9.56041815       1.83534284       7.69422185       0.03105862       0.01731934       0.00430909
Mg       6.37575645      11.04468446       5.13905216      -0.00804000      -0.00327551      -0.01156770
Mg      12.76224169       1.84236676       7.69875144      -0.01471376       0.00130821       0.00378639
Mg      14.34452846       2.75524705       5.13762627       0.01961624       0.01419792      -0.02185938
Mg      -1.59929963       4.60586217       7.69126228       0.02007492      -0.00908054       0.02713491
Mg       1.59384599       2.75645526       5.12056392      -0.00977766       0.01811585       0.03741125
Mg       1.59383665       4.59448371       7.71085397       0.00453870       0.01135526      -0.03528428
Mg       4.78048880       2.76154635       5.12835181       0.02071337      -0.00891173       0.01121598
Mg       4.78280485       4.60830024       7.70289793       0.00924149      -0.01907264      -0.01239882
Mg       7.97932638       2.75220079       5.12616324      -0.03837123       0.02761836       0.02181538
Mg       7.97292197       4.60415789       7.71087799      -0.00046121      -0.00644591      -0.03521519
Mg      11.15910714       2.75751081       5.13038148       0.01213727      -0.00046521       0.01799501
Mg      11.16459783       4.60544254       7.69617437      -0.01890081      -0.01465707       0.00661502
Mg      12.75766795       5.51710533       5.13884259      -0.01508552       0.02145132      -0.02299064
Mg      -3.19052553       7.36767031       7.70333124      -0.00864087       0.00570713      -0.00755203
Mg       0.00295870       5.52200334       5.14388710       0.00048068      -0.01157584      -0.02440609
Mg       0.00217444       7.36556152       7.70022061      -0.00391003      -0.00299740       0.00647167
Mg       3.19205914       5.51776014       5.13901890      -0.00816795       0.00408983      -0.01161423
Mg       3.19053797       7.36313759       7.69338218      -0.01741606       0.00080168       0.02274370
Mg       6.37750178       5.52123454       5.13195889       0.00087430      -0.00291392       0.00842396
Mg       6.36849284       7.36141111       7.69892206       0.03350230       0.01436067       0.00743910
Mg       9.55714336       5.50480221       5.12782272       0.02761184       0.04270536       0.01252296
Mg       9.56623823       7.36657234       7.69806683      -0.00138854      -0.01041931      -0.00601766
Mg      -4.78422934       8.28667935       5.12913005      -0.00038057      -0.01770280       0.01457179
Mg      -4.78674532      10.13175127       7.70933184       0.00939604      -0.02248883      -0.02592446
Mg      -1.59416050       8.28122937       5.13789820      -0.01620674       0.00908456      -0.01052638
Mg      -1.59386468      10.13268974       7.69691349      -0.00404741      -0.00735690       0.01293599
Mg       1.59309585       8.28107771       5.13257375       0.00870462       0.00146643      -0.00493784
Mg       1.59542517      10.12130917       7.69269140      -0.01232368      -0.00477807       0.00754013
Mg       4.78550147       8.28631428       5.13800892      -0.00888286       0.00065717      -0.01335680
Mg       4.78596945      10.12792306       7.69817570      -0.00529694      -0.00215107       0.00563612
Mg       7.97722203       8.28074534       5.12992414      -0.01380909      -0.00097934       0.01763191
Mg       7.97590319      10.12590353       7.69026184      -0.01083916      -0.00264173       0.02255425
Mg       9.56197688      11.04375693      10.26907686      -0.00501874       0.00983671       0.00083804
Mg      -0.00319626       1.83561458      12.82953867       0.01312002       0.01685667       0.00205486
Mg       3.18098698       0.00321968      10.27057435       0.02300624      -0.00863476      -0.01814956
Mg       3.18325922       1.83336285      12.83005960       0.00665424       0.02803623       0.00941853
Mg       0.00278259      11.04233598      10.26609018      -0.02591151       0.00745505      -0.00510867
Mg       6.37776383       1.83318656      12.84325433      -0.00079262       0.01881231      -0.02872401
Mg       3.17687324      11.03910834      10.25385908       0.02585322       0.01366388       0.02636633
Mg       9.57073280       1.85200350      12.83162438      -0.00612213      -0.02074104      -0.00226758
Mg      12.74914162       0.00611980      10.26428595       0.02016357      -0.02844314      -0.00703368
Mg      12.75654569       1.84169605      12.82540774      -0.00359554      -0.00647601       0.02915116
Mg      -1.59554761       2.77058318      10.26777923       0.01077995      -0.02917222      -0.02101591
Mg      -1.59680954       4.59781761      12.82641988       0.01537274       0.02346538       0.02396707
Mg       1.59508404       2.75735849      10.26924254       0.00019468       0.00187541       0.00070236
Mg       1.59690890       4.60694590      12.83730501      -0.00366033      -0.00681945      -0.00801032
Mg       4.79062418       2.76813925      10.26485569      -0.00394932      -0.04474963      -0.00219281
Mg       4.79357073       4.58886340      12.81916061      -0.02962028       0.03319247       0.04352605
Mg       7.97470698       2.75458385      10.26671982      -0.00334683       0.01903503       0.01422399
Mg       7.96769739       4.60745909      12.83698102       0.02046449      -0.00759806      -0.02003814
Mg      11.16627719       2.75031336      10.26573833      -0.02262042       0.02581914      -0.01390327
Mg      11.16290986       4.60290119      12.83888750      -0.00499982       0.00481839      -0.01532280
Mg      12.75616393       5.51749205      10.26302605      -0.00478824       0.01498955       0.00140972
Mg      -3.19224335       7.36041763      12.82519463       0.02221038      -0.00184949       0.01655706
Mg       0.00596749       5.51603531      10.25991897      -0.01742248       0.02476912       0.02216843
Mg      -0.00753981       7.37036907      12.83232347       0.01471848      -0.01382953       0.00399666
Mg       3.19029652       5.51318224      10.26176000       0.00193624       0.02362562       0.01577249
Mg       3.19522580       7.36227247      12.83305412      -0.01429022       0.00212058      -0.00075494
Mg       6.38296731       5.52543102      10.26501553      -0.00516937       0.01008318       0.00695426
Mg       6.38516008       7.36363510      12.84034881      -0.02268009       0.00218161      -0.02952447
Mg       9.56712887       5.51783216      10.26483198       0.01018669      -0.00024825       0.00850646
Mg       9.56866435       7.36821488      12.82291659      -0.00879205      -0.02222298       0.02477382
Mg      11.15061305       8.28280629      10.27490469       0.02698940      -0.00269314      -0.03937705
Mg      -4.77294424      10.11166791      12.83082998      -0.02760656       0.04146319       0.00588282
Mg      -1.59999186       8.28868795      10.25965919       0.00326239      -0.01458269       0.01462211
Mg      -1.60008300      10.12771330      12.83419607       0.01761647      -0.00676387      -0.00754177
Mg       1.58924808       8.28453422      10.26629729       0.01316453      -0.02099536       0.00183255
Mg       1.59054205      10.13920079      12.82630008       0.01847842      -0.03088680       0.01036368
Mg       4.77558139       8.28074522      10.27202811       0.01870796       0.00685009      -0.01790539
Mg       4.78778748      10.12593755      12.82372177      -0.01878915       0.00685721       0.01397358
Mg       7.97747279       8.29045674      10.26652565      -0.03495528      -0.01346530      -0.01211959
Mg       7.97348688      10.12655480      12.83562011      -0.00280965      -0.00089321      -0.01769443
120
Lattice="15.9435 0.0 0.0 -6.3774 11.04598082 0.0 0.0 0.0 15.3984" Properties=species:S:1:pos:R:3:forces:R:3 energy=-180.47221133 stress="-0.001344783379078502 0.00035598281275332414 -2.7687833803148205e-06 0.00035598281275332414 0.001719741047415988 -4.83522222171225e-06 -2.7687833803148205e-06 -4.83522222171225e-06 -0.0009054537191259457" free_energy=-180.47127524 pbc="T T T"
Mg       0.00102341       0.00218269      15.37836283       0.01805447      -0.03316756       0.05850695
Mg       0.01572262       1.84370465       2.55504789      -0.07787376      -0.00054298       0.01163280
Mg       3.20668369       0.01039526       0.00220613      -0.07044461      -0.01817126       0.00655301
Mg       3.17399343       1.85685169       2.56095579       0.06357728      -0.05712065       0.00376661
Mg      -0.00123390      11.04549568       0.00463692       0.03867618       0.00156394      -0.01380204
Mg       6.38554416       1.83176041       2.55765515      -0.03650962       0.04295826       0.01443402
Mg       9.56200683       0.00272449      15.38644576       0.01933192       0.04427234       0.02260085
Mg       9.56854232       1.87137042       2.58264767       0.00788990      -0.06951445      -0.07730069
Mg       6.38764344      11.01954326       0.00364465      -0.02973049       0.07629209      -0.01537434
Mg      12.74643183       1.82167731       2.57504379       0.03516018       0.05118815      -0.02568557
Mg      14.34814463       2.74985075      15.39574378      -0.02247462       0.01839617       0.01005580
Mg      -1.60491585       4.60947774       2.56315222       0.03352082      -0.03102948       0.04756125
Mg       1.57790249       2.77412275       0.00904856       0.04653477      -0.03126007      -0.05430157
Mg       1.59677313       4.60930742       2.56480601      -0.01077483       0.03072755       0.03978195
Mg       4.78036291       2.75138283      15.39503268      -0.00504851       0.05390122       0.00569538
Mg       4.78303973       4.60031864       2.57111828       0.00049669       0.01260461      -0.02861115
Mg       7.97601179       2.79761346      15.39682059      -0.01293198      -0.10250753       0.00926149
Mg       7.96764678       4.60774143       2.55798190      -0.00886908       0.00515421       0.02206497
Mg      11.16258550       2.76832957       0.00788013       0.02527215      -0.04264187      -0.00944603
Mg      11.17344749       4.60901691       2.56231778      -0.03240806      -0.00181284       0.02081113
Mg      -3.17732307       5.52783606       0.01174143      -0.01284561      -0.00543316      -0.05270758
Mg      -3.20983585       7.37084029       2.55739768       0.04003230      -0.00687033       0.03453903
Mg       0.00028631       5.51813548       0.02336954      -0.01703437       0.04704769      -0.06083923
Mg      -0.00441651       7.37690199       2.58990940       0.01646734      -0.02736553      -0.05075491
Mg       3.17501279       5.53168338       0.00498508       0.06340400      -0.02357228      -0.02022081
Mg       3.19546862       7.37402429       2.56924244      -0.02388246      -0.00494584       0.01226872
Mg       6.37713046       5.52981782       0.00222230      -0.05296531      -0.00657096       0.00882844
Mg       6.37472108       7.37938667       2.57797780       0.00300962      -0.03523164      -0.02593647
Mg       9.56040843       5.51807727       0.00336717       0.03733730       0.04565745      -0.01544492
Mg       9.54867398       7.36600226       2.56354627       0.03179197       0.00047532      -0.02009895
Mg      -4.77732593       8.28024639      15.37424207      -0.02121658       0.00084626       0.05699991
Mg      -4.78967739      10.11935503       2.55370222       0.01840595       0.02193778       0.00296634
Mg      -1.58788115       8.29937350       0.01402009      -0.01016631      -0.05403691      -0.03905308
Mg      -1.58399932      10.11972231       2.55524838      -0.04775246       0.03685681       0.07199170