108
Lattice="10.8024 0.0 0.0 0.0 10.8024 0.0 0.0 0.0 10.8024" Properties=species:S:1:pos:R:3:forces:R:3 energy=-404.93737045 stress="-0.014507393821783574 3.377280588015431e-08 -2.396739504339171e-08 3.377280588015431e-08 -0.014507363974886932 -3.351066249686722e-08 -2.396739504339171e-08 -3.351066249686722e-08 -0.014507409825012972" free_energy=-404.95005541 pbc="T T T"
Cu       0.00000000       0.00000000       0.00000000      -0.00003689       0.00000163      -0.00005578
Cu       1.80040360       1.80040360       0.00000000      -0.00973006      -0.00969407      -0.00001675
Cu       0.00000000       1.80040360       1.80040360      -0.00002798      -0.00963584      -0.00969036
Cu       1.80040360       0.00000000       1.80040360      -0.00968981       0.00002787      -0.00970450
Cu       3.60079640       0.00000000       0.00000000       0.00746845      -0.00003032      -0.00004480
Cu       5.40120000       1.80040360       0.00000000       0.00003179      -0.00748000       0.00001786
Cu       3.60079640       1.80040360       1.80040360      -0.00174240       0.00175761       0.00179739
Cu       5.40120000       0.00000000       1.80040360       0.00001264      -0.00000698      -0.00745095
Cu       7.20160360       0.00000000       0.00000000      -0.00742941      -0.00003305      -0.00002748
Cu       9.00199640       1.80040360       0.00000000       0.00969333      -0.00969021      -0.00001069
Cu       7.20160360       1.80040360       1.80040360       0.00176791       0.00179473       0.00174301
Cu       9.00199640       0.00000000       1.80040360       0.00967218       0.00001260      -0.00974716
Cu       0.00000000       3.60079640       0.00000000      -0.00003491       0.00743881       0.00002931
Cu       1.80040360       5.40120000       0.00000000      -0.00749393       0.00001686       0.00002534
Cu       0.00000000       5.40120000       1.80040360      -0.00001944      -0.00002598      -0.00742473
Cu       1.80040360       3.60079640       1.80040360       0.00170231      -0.00171802       0.00181105
Cu       3.60079640       3.60079640       0.00000000       0.00967980       0.00967786       0.00003272
Cu       5.40120000       5.40120000       0.00000000       0.00005005       0.00003884       0.00006426
Cu       3.60079640       5.40120000       1.80040360       0.00968974       0.00000646      -0.00962218
Cu       5.40120000       3.60079640       1.80040360       0.00005326       0.00971599      -0.00963582
Cu       7.20160360       3.60079640       0.00000000      -0.00964180       0.00968726       0.00005857
Cu       9.00199640       5.40120000       0.00000000       0.00744351       0.00001762       0.00004539
Cu       7.20160360       5.40120000       1.80040360      -0.00966833      -0.00001340      -0.00965320
Cu       9.00199640       3.60079640       1.80040360      -0.00175469      -0.00172067       0.00177257
Cu       0.00000000       7.20160360       0.00000000      -0.00003348      -0.00744178      -0.00002369
Cu       1.80040360       9.00199640       0.00000000      -0.00969881       0.00967780      -0.00007742
Cu       0.00000000       9.00199640       1.80040360      -0.00003630       0.00965855      -0.00974881
Cu       1.80040360       7.20160360       1.80040360       0.00174302       0.00169621       0.00176236
Cu       3.60079640       7.20160360       0.00000000       0.00970265      -0.00964800      -0.00001055
Cu       5.40120000       9.00199640       0.00000000       0.00004111       0.00744219      -0.00003056
Cu       3.60079640       9.00199640       1.80040360      -0.00171270      -0.00176332       0.00174775
Cu       5.40120000       7.20160360       1.80040360       0.00003111      -0.00971026      -0.00969646
Cu       7.20160360       7.20160360       0.00000000      -0.00966624      -0.00965320      -0.00000148
Cu       9.00199640       9.00199640       0.00000000       0.00965712       0.00967319      -0.00005387
Cu       7.20160360       9.00199640       1.80040360       0.00174941      -0.00178256       0.00169993
Cu       9.00199640       7.20160360       1.80040360      -0.00177028       0.00170807       0.00171565
Cu       0.00000000       0.00000000       3.60079640      -0.00000276       0.00006159       0.00743736
Cu       1.80040360       1.80040360       3.60079640       0.00176148       0.00181674      -0.00172194
Cu       0.00000000       1.80040360       5.40120000       0.00002008      -0.00740213       0.00000904
Cu       1.80040360       0.00000000       5.40120000      -0.00738368       0.00002169       0.00006549
Cu       3.60079640       0.00000000       3.60079640       0.00973027       0.00002067       0.00974552
Cu       5.40120000       1.80040360       3.60079640      -0.00002168      -0.00966793       0.00969944
Cu       3.60079640       1.80040360       5.40120000       0.00967307      -0.00969474      -0.00001667
Cu       5.40120000       0.00000000       5.40120000      -0.00005798      -0.00002188       0.00000376
Cu       7.20160360       0.00000000       3.60079640      -0.00972657       0.00000785       0.00967820
Cu       9.00199640       1.80040360       3.60079640      -0.00174002       0.00182290      -0.00176645
Cu       7.20160360       1.80040360       5.40120000      -0.00969442      -0.00966265      -0.00001596
Cu       9.00199640       0.00000000       5.40120000       0.00744230       0.00001353       0.00003458
Cu       0.00000000       3.60079640       3.60079640       0.00000095       0.00971161       0.00966870
Cu       1.80040360       5.40120000       3.60079640      -0.00968167      -0.00003423       0.00970131
Cu       0.00000000       5.40120000       5.40120000       0.00003580      -0.00002798      -0.00002323
Cu       1.80040360       3.60079640       5.40120000      -0.00967589       0.00970362      -0.00002862
Cu       3.60079640       3.60079640       3.60079640      -0.00176604      -0.00173622      -0.00171058
Cu       5.40120000       5.40120000       3.60079640       0.00001917      -0.00002022       0.00743920
Cu       3.60079640       5.40120000       5.40120000       0.00741641      -0.00000706      -0.00003959
Cu       5.40120000       3.60079640       5.40120000      -0.00002130       0.00745747      -0.00006046
Cu       7.20160360       3.60079640       3.60079640       0.00176112      -0.00170214      -0.00178381
Cu       9.00199640       5.40120000       3.60079640       0.00966318      -0.00004055       0.00964574
Cu       7.20160360       5.40120000       5.40120000      -0.00745074       0.00000278      -0.00005863
Cu       9.00199640       3.60079640       5.40120000       0.00969683       0.00969480      -0.00003562
Cu       0.00000000       7.20160360       3.60079640       0.00000343      -0.00977056       0.00966302
Cu       1.80040360       9.00199640       3.60079640       0.00180467      -0.00177696      -0.00172522
Cu       0.00000000       9.00199640       5.40120000       0.00001669       0.00743047       0.00007639
Cu       1.80040360       7.20160360       5.40120000      -0.00964930      -0.00972567       0.00003553
Cu       3.60079640       7.20160360       3.60079640      -0.00175001       0.00171306      -0.00172756
Cu       5.40120000       9.00199640       3.60079640      -0.00000655       0.00968683       0.00971151
Cu       3.60079640       9.00199640       5.40120000       0.00970904       0.00970130       0.00005655
Cu       5.40120000       7.20160360       5.40120000      -0.00000819      -0.00743516       0.00000014
Cu       7.20160360       7.20160360       3.60079640       0.00174467       0.00169417      -0.00176623
Cu       9.00199640       9.00199640       3.60079640      -0.00179175      -0.00178305      -0.00177434
Cu       7.20160360       9.00199640       5.40120000      -0.00972630       0.00966582       0.00003612
Cu       9.00199640       7.20160360       5.40120000       0.00965738      -0.00970928       0.00001942
Cu       0.00000000       0.00000000       7.20160360       0.00002949      -0.00000419      -0.00737869
Cu       1.80040360       1.80040360       7.20160360       0.00173866       0.00173145       0.00173835
Cu       0.00000000       1.80040360       9.00199640      -0.00002188      -0.00971651       0.00968000
Cu       1.80040360       0.00000000       9.00199640      -0.00969857      -0.00004046       0.00963969
Cu       3.60079640       0.00000000       7.20160360       0.00966325      -0.00004616      -0.00969851
Cu       5.40120000       1.80040360       7.20160360      -0.00002033      -0.00972650      -0.00971583
Cu       3.60079640       1.80040360       9.00199640      -0.00177812       0.00168479      -0.00178030
Cu       5.40120000       0.00000000       9.00199640      -0.00000284      -0.00006046       0.00744865
Cu       7.20160360       0.00000000       7.20160360      -0.00969502      -0.00004630      -0.00964650
Cu       9.00199640       1.80040360       7.20160360      -0.00171817       0.00175747       0.00178007
Cu       7.20160360       1.80040360       9.00199640       0.00179999       0.00171322      -0.00172685
Cu       9.00199640       0.00000000       9.00199640       0.00970255      -0.00002608       0.00971234
Cu       0.00000000       3.60079640       7.20160360       0.00000943       0.00966998      -0.00969852
Cu       1.80040360       5.40120000       7.20160360      -0.00969755       0.00002543      -0.00972392
Cu       0.00000000       5.40120000       9.00199640      -0.00000135       0.00003046       0.00744815
Cu       1.80040360       3.60079640       9.00199640       0.00169958      -0.00175910      -0.00178294
Cu       3.60079640       3.60079640       7.20160360      -0.00180032      -0.00176273       0.00167647
Cu       5.40120000       5.40120000       7.20160360      -0.00000792       0.00003829      -0.00750041
Cu       3.60079640       5.40120000       9.00199640       0.00964937       0.00004841       0.00965640
Cu       5.40120000       3.60079640       9.00199640       0.00003005       0.00966766       0.00969691
Cu       7.20160360       3.60079640       7.20160360       0.00179206      -0.00175548       0.00172585
Cu       9.00199640       5.40120000       7.20160360       0.00970256       0.00001268      -0.00969245
Cu       7.20160360       5.40120000       9.00199640      -0.00964943       0.00005035       0.00971521
Cu       9.00199640       3.60079640       9.00199640      -0.00172686      -0.00177825      -0.00173903
Cu       0.00000000       7.20160360       7.20160360       0.00002354      -0.00966743      -0.00964053
Cu       1.80040360       9.00199640       7.20160360       0.00178262      -0.00175779       0.00179783
Cu       0.00000000       9.00199640       9.00199640      -0.00000451       0.00968369       0.00967467
Cu       1.80040360       7.20160360       9.00199640       0.00172156       0.00180299      -0.00179520
Cu       3.60079640       7.20160360       7.20160360      -0.00178673       0.00181084       0.00173418
Cu       5.40120000       9.00199640       7.20160360      -0.00002555       0.00968897      -0.00967883
Cu       3.60079640       9.00199640       9.00199640      -0.00176127      -0.00173286      -0.00180306
Cu       5.40120000       7.20160360       9.00199640       0.00002824      -0.00960846       0.00969560
Cu       7.20160360       7.20160360       7.20160360       0.00176359       0.00179801       0.00177167
Cu       9.00199640       9.00199640       7.20160360      -0.00175990      -0.00177299       0.00182436
Cu       7.20160360       9.00199640       9.00199640       0.00176921      -0.00176243      -0.00173356
Cu       9.00199640       7.20160360       9.00199640      -0.00175070       0.00180713      -0.00173614
108
Lattice="10.8024 0.0 0.0 0.0 10.8024 0.0 0.0 0.0 10.8024" Properties=species:S:1:pos:R:3:forces:R:3 energy=-404.91463886 stress="-0.014907311185251319 8.661910191318652e-06 -8.227008076936233e-06 8.661910191318652e-06 -0.01493071007243598 -1.0266620912110616e-05 -8.227008076936233e-06 -1.0266620912110616e-05 -0.014928493169534084" free_energy=-404.92731001 pbc="T T T"
Cu      10.79922960      10.79874598      10.80084467       0.02242778       0.05309897       0.02587015
Cu       1.79867187       1.79935825      10.80074766      -0.00719820      -0.03086257       0.01080073
Cu       0.00177062       1.80298246       1.80151787      -0.01925760      -0.01550899      -0.00736007
Cu       1.80018961      10.79929474       1.79690557      -0.01622347       0.01384402       0.03688449
Cu       3.59857618      10.79608384       0.00025688       0.02200522       0.06820062       0.00646627
Cu       5.39893204       1.80009508      10.80230732       0.00927659      -0.05849288      -0.03072236
Cu       3.60563760       1.80734566       1.79815854      -0.04704058      -0.07489751       0.00817120
Cu       5.40213073      10.80164383       1.80202526      -0.00746210      -0.00005660      -0.03164899
Cu       7.20780493      10.79945181      10.80214636      -0.05003231       0.03820826      -0.00576089
Cu       8.99838159       1.80867014       0.00190479       0.03628203      -0.04506052       0.00876696
Cu       7.19725380       1.80388424       1.79823426       0.02653019      -0.03769416       0.00538432
Cu       9.00101619       0.00214536       1.80080426       0.00357984       0.01915052       0.00632612
Cu       0.00302122       3.60008193      10.79913217      -0.01556843       0.02725240       0.03026756
Cu       1.80229316       5.39716908       0.00129661      -0.02839902       0.03162092       0.00694037
Cu      10.80129189       5.40844409       1.80752670       0.01348173      -0.08638047      -0.06659313
Cu       1.80268064       3.59826669       1.79799067      -0.02972841       0.02555208       0.02820196
Cu       3.59704289       3.59542480      10.80191486       0.03891679       0.04907314      -0.01937735
Cu       5.40283375       5.40293767      10.79866572      -0.06206130      -0.00797577       0.04279950
Cu       3.60549263       5.40303414       1.80509832      -0.01407039      -0.01490019      -0.06161770
Cu       5.39469220       3.59745468       1.79364962       0.04077899       0.07619871       0.03154114
Cu       7.19236787       3.60238716      10.80021284       0.05430770       0.02495204       0.03225031
Cu       9.00699348       5.40211475       0.00313410      -0.00981861      -0.00962769      -0.01920330
Cu       7.19950048       5.41233879       1.79674494      -0.02484296      -0.06482951       0.00444703
Cu       8.99402682       3.60157838       1.79673132       0.06506199       0.01677025       0.01873371
Cu      10.80200215       7.20461844      10.80202980       0.00019348      -0.04185628       0.00218555
Cu       1.79975827       9.00276942      10.80218784      -0.03123013      -0.00420107       0.01088176
Cu      10.79169061       9.00073306       1.80200052       0.10174435       0.02382357      -0.00248223
Cu       1.79859550       7.19807305       1.79520581       0.01100005       0.05134342       0.03836259
Cu       3.59982883       7.20844617      10.80135011       0.01448952      -0.06136670      -0.01519607
Cu       5.40021136       9.00248391      10.79644842       0.02829563       0.00200661       0.04298522
Cu       3.59848620       8.99802252       1.78779590       0.00704835       0.03594037       0.10087911
Cu       5.39607513       7.20603658       1.80135443       0.04387742      -0.02509028      -0.03351438
Cu       7.19949648       7.19940780      10.80006150       0.02432247       0.03780102       0.02986651
Cu       9.00006201       9.00587133       0.00694270      -0.00375238      -0.02911096      -0.05447190
Cu       7.19817859       9.00438567       1.80156335       0.02162743      -0.02710679       0.00294319
Cu       9.00074321       7.20490481       1.80648946      -0.01828973      -0.00655490      -0.07651434
Cu      10.79705270      10.80222651       3.59937934       0.05520742      -0.00462744       0.01292944
Cu       1.80297803       1.79918606       3.60373498      -0.00311309      -0.01121658      -0.02388570
Cu      10.80157826       1.79802437       5.40143538       0.00623673       0.00062279      -0.00358233
Cu       1.79875213      10.80116831       5.40173904       0.02135846       0.00284960       0.00728908
Cu       3.60661241       0.00447284       3.59686054      -0.01623496      -0.03254729       0.01148271
Cu       5.40598417       1.80754917       3.59743286      -0.02540697      -0.04430193       0.03796391
Cu       3.59976380       1.79386642       5.40848341       0.00807466       0.03493558      -0.03531717
Cu       5.39898886       0.00349501       5.40081824       0.02862173      -0.03204374      -0.01175421
Cu       7.20178184      10.79801865       3.60151497       0.00597909       0.03862682       0.00244312
Cu       9.00100938       1.80257607       3.60650644      -0.00295732      -0.01067741      -0.04334850
Cu       7.20373081       1.79542920       5.40401219       0.00164264       0.02425348      -0.00000300
Cu       9.00483225      10.79832501       5.40377324      -0.01785310       0.04111811      -0.01521304
Cu       0.00105064       3.60132021       3.60794057      -0.01358000       0.01563635      -0.05761963
Cu       1.80147250       5.40480714       3.59931755      -0.00520402      -0.01291590       0.02125719
Cu       0.00060785       5.40472493       5.40129992      -0.02363392      -0.01965399       0.00883912
Cu       1.79539345       3.60078279       5.39927188       0.03871873       0.02311763       0.00519499
Cu       3.59822910       3.60171752       3.59970838       0.01169623      -0.01260530       0.02775014
Cu       5.40130630       5.40309615       3.60476336       0.00683502      -0.05250955      -0.04243277
Cu       3.60298885       5.39767312       5.40129549      -0.02562802       0.03506379      -0.01813550
Cu       5.39778407       3.59273079       5.40425341       0.03139620       0.04367070      -0.02052011
Cu       7.20444442       3.59726996       3.59075406      -0.02854545       0.05840802       0.07392143
Cu       9.00446291       5.40738589       3.59446382      -0.01933914      -0.06173567       0.05959211
Cu       7.19924706       5.40289382       5.39456625       0.02534737      -0.04333675       0.02293642
Cu       9.00302155       3.60130822       5.40278050      -0.01180316       0.02444543      -0.01312040
Cu      10.79755739       7.19842791       3.59348814       0.06132997       0.03890986       0.08013764
Cu       1.80910774       9.00215952       3.61070695      -0.06420950      -0.00158793      -0.07406145
Cu      10.79396095       9.00007811       5.40654071       0.06968831      -0.00566580      -0.05513423
Cu       1.79623161       7.20265759       5.40261274       0.02734725      -0.02786842      -0.02876754
Cu       3.60512859       7.20357353       3.59157234      -0.03869745       0.00270466       0.08498115
Cu       5.40717805       8.99852872       3.60204256      -0.05593208       0.04086662       0.00801180
Cu       3.59958739       9.00467205       5.40867580       0.03423417      -0.01549761      -0.05610658
Cu       5.40574705       7.20095405       5.39269451      -0.03496971       0.01649291       0.05212448
Cu       7.20416042       7.19725639       3.60053001       0.00012286       0.04957330       0.00042501
Cu       9.00987470       8.99831030       3.60409232      -0.08094656       0.02012962      -0.01651367
Cu       7.20331006       9.00884447       5.40172521      -0.03117287      -0.05950678      -0.00279747
Cu       9.00135938       7.20382479       5.40500903      -0.00840235      -0.05200085      -0.01707410
Cu       0.00089930      10.79609615       7.19689386       0.00699194       0.01635221       0.04704408
Cu       1.80021380       1.80703563       7.19923539      -0.00106895      -0.07105283       0.01196341
Cu      10.79912925       1.79723699       8.99812784       0.05255558       0.00344521       0.03851668
Cu       1.80228646      10.80113526       9.00163009      -0.04857499       0.01265183      -0.01980493
Cu       3.61191412      10.79983594       7.20819101      -0.09358195       0.02117493      -0.04748969
Cu       5.40501660       1.79684615       7.20170406      -0.00363751       0.02332257       0.02970808
Cu       3.59468581       1.79678145       8.99843982       0.06046722       0.01331571       0.01587152
Cu       5.40014136      10.79395900       9.00429753       0.03818176       0.08683100       0.00152141
Cu       7.20500636      10.79566492       7.20083479      -0.02225175       0.05600519       0.01740088
Cu       9.01105097       1.80134492       7.20646738      -0.06779658      -0.00255490      -0.04564443
Cu       7.20637859       1.80730579       9.00124056      -0.03757117      -0.07398697      -0.00856893
Cu       9.00618265       0.00819222       9.00411194      -0.01438489      -0.07303912      -0.01552274
Cu       0.00613079       3.59769395       7.20029824      -0.03397635       0.04477311      -0.00277252
Cu       1.79903418       5.40458126       7.20414465       0.00705823      -0.00928098      -0.04399251
Cu       0.00483213       5.40146293       8.99292454      -0.02424415      -0.00836869       0.07336693
Cu       1.80463512       3.59988273       9.00489209      -0.02950666      -0.00267601      -0.01678381
Cu       3.59683764       3.60758636       7.20169013       0.03853956      -0.04043748       0.02305438
Cu       5.40063028       5.40409731       7.20140462      -0.00798398      -0.04144406       0.01225596
Cu       3.59337634       5.40472925       9.00618449       0.08273561      -0.02007341      -0.00385278
Cu       5.40866586       3.59597054       9.00887061      -0.08915386       0.03924611      -0.06945627
Cu       7.20271258       3.60777000       7.19921605       0.00090977      -0.04761074       0.01011228
Cu       8.99874823       5.39983339       7.20569285       0.03441918      -0.00255701      -0.03550793
Cu       7.20059703       5.40055704       9.00577972       0.02102883      -0.01677146      -0.00551639
Cu       9.00447620       3.59789876       9.00423098      -0.00247433       0.04148104      -0.00913785
Cu      10.79843779       7.20231310       7.20527339       0.00417233      -0.01258857      -0.01248667
Cu       1.79738368       8.99562007       7.19613240       0.02627668       0.03090408       0.04361016
Cu       0.00439355       8.99974691       9.00743498      -0.05088892       0.02534636      -0.04115084
Cu       1.80309794       7.20234508       9.00293686      -0.00897008       0.00768150      -0.00209289
Cu       3.60547168       7.19710689       7.19929923      -0.01810698       0.02938111       0.02554518
Cu       5.39621966       9.00042044       7.20002645       0.04993073      -0.01710223      -0.01040985
Cu       3.59762276       9.00953928       9.00048568       0.00272362      -0.08777027      -0.01504842
Cu       5.40938498       7.20122703       9.00719700      -0.07617198       0.00535202      -0.03369652
Cu       7.19587250       7.19202295       7.20448363       0.03866287       0.06774363      -0.01198579
Cu       8.99561477       8.99628074       7.19596799       0.03269633       0.02116938       0.09378089
Cu       7.19948482       9.00628063       8.99897670       0.05424967      -0.03410883       0.00572271
Cu       9.00219711       7.19917760       9.00730513      -0.01572052       0.03627364      -0.02371177
108
Lattice="10.8024 0.0 0.0 0.0 10.8024 0.0 0.0 0.0 10.8024" Properties=species:S:1:pos:R:3:forces:R:3 energy=-404.84822435 stress="-0.015161275276798747 1.9386083654429518e-05 -1.628253693214795e-06 1.9386083654429518e-05 -0.015123063297416955 -2.040356198911276e-05 -1.628253693214795e-06 -2.040356198911276e-05 -0.015185445620752875" free_energy=-404.86085407 pbc="T T T"
Cu      10.79606256      10.79510006      10.79929312       0.03148071       0.08908599       0.04439183
Cu       1.79693895       1.79830826      10.79909673      -0.01423463      -0.05824109       0.01550981
Cu       0.00353833       1.80555905       1.80263095      -0.03364744      -0.01591651      -0.00288545
Cu       1.79997313      10.79619164       1.79341294      -0.02402044       0.02736559       0.07885983
Cu       3.59635931      10.78977804       0.00051473       0.04233129       0.13638964       0.01150231
Cu       5.39666548       1.79977771      10.80220977       0.02021921      -0.10740605      -0.06163144
Cu       3.61047168       1.81427637       1.79591466      -0.08998967      -0.15029252       0.01808551
Cu       5.40306039      10.80088756       1.80364205      -0.01254943      -0.00320449      -0.05193842
Cu       7.21399860      10.79650945      10.80189175      -0.09647598       0.08383282      -0.01381037
Cu       8.99477229       1.81692998       0.00381076       0.07340748      -0.09007486       0.01581472
Cu       7.19290799       1.80735927       1.79606568       0.05544295      -0.08314803       0.00316379
Cu       9.00003663       0.00429363       1.80120590      -0.00579966       0.04719930       0.02378358
Cu       0.00603995       3.59937167      10.79586887      -0.03051814       0.04546162       0.05706232
Cu       1.80417828       5.39314314       0.00259420      -0.04950035       0.06524997       0.01866202
Cu      10.80018583       5.41567500       1.81463965       0.02728006      -0.17979626      -0.14201657
Cu       1.80495314       3.59574077       1.79558206      -0.06313508       0.05760620       0.05449070
Cu       3.59329521       3.59006076      10.80142670       0.07522383       0.09650920      -0.04014458
Cu       5.40445811       5.40467416      10.79493781      -0.11757843      -0.00543556       0.06579387
Cu       3.61018671       5.40486601       1.80978354      -0.03496728      -0.03253417      -0.11440152
Cu       5.38819056       3.59412451       1.78690028       0.08385830       0.14649258       0.07386161
Cu       7.18314035       3.60398170      10.79803054       0.13016219       0.04203557       0.06687690
Cu       9.01198905       5.40302809       0.00626528      -0.01744897      -0.02020924      -0.03210712
Cu       7.19739347       5.42346774       1.79308692      -0.03732504      -0.14180034       0.02014390
Cu       8.98606696       3.60236296       1.79306186       0.13003930       0.03207844       0.03276292
Cu      10.80160430       7.20762702      10.80165993       0.00024233      -0.06771844       0.00504027
Cu       1.79910818       9.00354179      10.80197719      -0.05740222      -0.01055416       0.01051137
Cu      10.78099666       8.99947339       1.80359701       0.20500866       0.03971967       0.00117002
Cu       1.79678912       7.19455028       1.79001374       0.01593553       0.09369942       0.07027896
Cu       3.59886342       7.21527933      10.80029785       0.02709781      -0.11889030      -0.03114216
Cu       5.39922705       9.00297164      10.79050332       0.05581748       0.00426704       0.07900679
Cu       3.59617708       8.99405426       1.77520344       0.02402438       0.08446657       0.20000686
Cu       5.39095695       7.21046578       1.80230018       0.09038657      -0.03759898      -0.06173120
Cu       7.19739293       7.19721761      10.79772742       0.05461809       0.08320726       0.05610028
Cu       8.99812709       9.00974172       0.01387698      -0.01334164      -0.07002028      -0.11402354
Cu       7.19475693       9.00677084       1.80272342       0.04680804      -0.05945997       0.00022790
Cu       8.99948711       7.20820495       1.81256354      -0.03507571      -0.01114152      -0.15239811
Cu      10.79171383      10.80205238       3.59796412       0.10565214      -0.00815548       0.01722173
Cu       1.80555181       1.79796669       3.60666988      -0.01282709      -0.02223138      -0.05273961
Cu      10.80075750       1.79564514       5.40167023       0.01094175      -0.00419403      -0.00823559
Cu       1.79710390      10.79993705       5.40227894       0.03477776       0.00544440       0.01322823
Cu       3.61242583       0.00894082       3.59292631      -0.04117419      -0.06689132       0.01652473
Cu       5.41076444       1.81468805       3.59407493      -0.05593750      -0.09183598       0.07716410
Cu       3.59873238       1.78733453       5.41576142       0.01088419       0.08437957      -0.07379359
Cu       5.39678203       0.00698505       5.40043465       0.04634757      -0.04760527      -0.02890013
Cu       7.20196094      10.79364314       3.60223377       0.01742510       0.07399725      -0.00494971
Cu       9.00002194       1.80474692       3.61220989      -0.00471777      -0.02692148      -0.08343464
Cu       7.20585834       1.79045837       5.40682427       0.01017174       0.05975953      -0.00013205
Cu       9.00766528      10.79425629       5.40634399      -0.03121463       0.07873619      -0.02832576
Cu       0.00209912       3.60184639       3.61507577      -0.03098580       0.02090178      -0.12977344
Cu       1.80254064       5.40841222       3.59784173       0.00009384      -0.01968701       0.03232979
Cu       0.00121203       5.40824695       5.40140103      -0.04061008      -0.02153756       0.01872196
Cu       1.79038913       3.60077274       5.39734452       0.08759506       0.04071634       0.00846288
Cu       3.59566364       3.60263680       3.59862458       0.02919481      -0.02512251       0.05691287
Cu       5.40141367       5.40498430       3.60872385       0.01348214      -0.10509774      -0.08047824
Cu       3.60517731       5.39415165       5.40138807      -0.04615675       0.06544935      -0.03474527
Cu       5.39437278       3.58467176       5.40730368       0.06792630       0.08640872      -0.04482769
Cu       7.20728091       3.59375237       3.58072284      -0.05722646       0.11676644       0.12965212
Cu       9.00692651       5.41356248       3.58814031      -0.05286815      -0.13300932       0.11336060
Cu       7.19689429       5.40458104       5.38793584       0.05091154      -0.08830092       0.04286630