120
Lattice="15.7043475 0.0 0.0 -6.281739 10.88029111 0.0 0.0 0.0 15.3984" Properties=species:S:1:pos:R:3:forces:R:3 energy=-179.90001718 stress="-0.010027853459737614 -5.819304113515623e-05 -2.08029499165689e-08 -5.819304113515623e-05 -0.007774054631867464 2.989682871298081e-08 -2.08029499165689e-08 2.989682871298081e-08 -0.0055874615905517535" free_energy=-179.90463819 pbc="T T T"
Mg       0.00000000       0.00000000       0.00000000      -0.00039498      -0.00204410      -0.00000619
Mg       0.00000003       1.81338189       2.56640005      -0.00186617      -0.00088999       0.00000287
Mg       3.14086950       0.00000000       0.00000000      -0.00079074      -0.00213430      -0.00000634
Mg       3.14086953       1.81338189       2.56640005      -0.00197076       0.00012620       0.00000380
Mg       6.28173900       0.00000000       0.00000000       0.00516483       0.00149878      -0.00000595
Mg       6.28173903       1.81338189       2.56640005       0.00304012       0.00411333       0.00000330
Mg       9.42260850       0.00000000       0.00000000      -0.00577127      -0.00545912      -0.00000628
Mg       9.42260853       1.81338189       2.56640005      -0.00227534       0.00184201       0.00000323
Mg      12.56347800       0.00000000       0.00000000      -0.00018068      -0.00207094      -0.00000662
Mg      12.56347803       1.81338189       2.56640005       0.00253505       0.00284452       0.00000387
Mg      -1.57043475       2.72007278       0.00000000      -0.00039230      -0.00204472      -0.00000667
Mg      -1.57043472       4.53345467       2.56640005      -0.00186266      -0.00089021       0.00000376
Mg       1.57043475       2.72007278       0.00000000      -0.00079058      -0.00213290      -0.00000607
Mg       1.57043478       4.53345467       2.56640005      -0.00197119       0.00012527       0.00000272
Mg       4.71130425       2.72007278       0.00000000       0.00516222       0.00150073      -0.00000649
Mg       4.71130428       4.53345467       2.56640005       0.00303857       0.00411380       0.00000418
Mg       7.85217375       2.72007278       0.00000000      -0.00577203      -0.00545837      -0.00000622
Mg       7.85217378       4.53345467       2.56640005      -0.00227650       0.00184316       0.00000220
Mg      10.99304325       2.72007278       0.00000000      -0.00017983      -0.00207304      -0.00000548
Mg      10.99304328       4.53345467       2.56640005       0.00253787       0.00284436       0.00000525
Mg      -3.14086950       5.44014555       0.00000000      -0.00039106      -0.00204626      -0.00000640
Mg      -3.14086947       7.25352744       2.56640005      -0.00186291      -0.00089076       0.00000384
Mg       0.00000000       5.44014555       0.00000000      -0.00078941      -0.00213467      -0.00000669
Mg       0.00000003       7.25352744       2.56640005      -0.00196911       0.00012368       0.00000348
Mg       3.14086950       5.44014555       0.00000000       0.00516224       0.00150135      -0.00000685
Mg       3.14086953       7.25352744       2.56640005       0.00303960       0.00411248       0.00000305
Mg       6.28173900       5.44014555       0.00000000      -0.00577399      -0.00545723      -0.00000638
Mg       6.28173903       7.25352744       2.56640005      -0.00227950       0.00184351       0.00000286
Mg       9.42260850       5.44014555       0.00000000      -0.00017925      -0.00207188      -0.00000653
Mg       9.42260853       7.25352744       2.56640005       0.00253621       0.00284643       0.00000537
Mg      -4.71130425       8.16021833       0.00000000      -0.00039334      -0.00204421      -0.00000681
Mg      -4.71130422       9.97360022       2.56640005      -0.00186548      -0.00088990       0.00000360
Mg      -1.57043475       8.16021833       0.00000000      -0.00078911      -0.00213640      -0.00000631
Mg      -1.57043472       9.97360022       2.56640005      -0.00197051       0.00012434       0.00000352
Mg       1.57043475       8.16021833       0.00000000       0.00516495       0.00149981      -0.00000632
Mg       1.57043478       9.97360022       2.56640005       0.00304225       0.00411217       0.00000338
Mg       4.71130425       8.16021833       0.00000000      -0.00577282      -0.00545764      -0.00000634
Mg       4.71130428       9.97360022       2.56640005      -0.00227807       0.00184224       0.00000300
Mg       7.85217375       8.16021833       0.00000000      -0.00018185      -0.00207001      -0.00000452
Mg       7.85217378       9.97360022       2.56640005       0.00253405       0.00284627       0.00000509
Mg       0.00000000       0.00000000       5.13279995      -0.00039376      -0.00204276       0.00000944
Mg       0.00000003       1.81338189       7.69920000      -0.00186610      -0.00089001       0.00000539
Mg       3.14086950       0.00000000       5.13279995      -0.00079158      -0.00213379       0.00000930
Mg       3.14086953       1.81338189       7.69920000      -0.00197242       0.00012420       0.00000560
Mg       6.28173900       0.00000000       5.13279995       0.00516505       0.00149966       0.00000896
Mg       6.28173903       1.81338189       7.69920000       0.00303991       0.00411260       0.00000465
Mg       9.42260850       0.00000000       5.13279995      -0.00577213      -0.00545751       0.00000836
Mg       9.42260853       1.81338189       7.69920000      -0.00227584       0.00184044       0.00000488
Mg      12.56347800       0.00000000       5.13279995      -0.00018079      -0.00207102       0.00000956
Mg      12.56347803       1.81338189       7.69920000       0.00253711       0.00284469       0.00000604
Mg      -1.57043475       2.72007278       5.13279995      -0.00039291      -0.00204395       0.00000830
Mg      -1.57043472       4.53345467       7.69920000      -0.00186380      -0.00089181       0.00000588
Mg       1.57043475       2.72007278       5.13279995      -0.00079235      -0.00213294       0.00000829
Mg       1.57043478       4.53345467       7.69920000      -0.00197183       0.00012421       0.00000588
Mg       4.71130425       2.72007278       5.13279995       0.00516275       0.00150092       0.00000899
Mg       4.71130428       4.53345467       7.69920000       0.00303862       0.00411381       0.00000496
Mg       7.85217375       2.72007278       5.13279995      -0.00577134      -0.00545608       0.00000828
Mg       7.85217378       4.53345467       7.69920000      -0.00227658       0.00184250       0.00000435
Mg      10.99304325       2.72007278       5.13279995      -0.00017800      -0.00207268       0.00000991
Mg      10.99304328       4.53345467       7.69920000       0.00253766       0.00284404       0.00000651
Mg      -3.14086950       5.44014555       5.13279995      -0.00039066      -0.00204543       0.00001063
Mg      -3.14086947       7.25352744       7.69920000      -0.00186458      -0.00089170       0.00000590
Mg       0.00000000       5.44014555       5.13279995      -0.00078971      -0.00213489       0.00000980
Mg       0.00000003       7.25352744       7.69920000      -0.00197047       0.00012283       0.00000480
Mg       3.14086950       5.44014555       5.13279995       0.00516260       0.00150169       0.00000936
Mg       3.14086953       7.25352744       7.69920000       0.00303900       0.00411274       0.00000553
Mg       6.28173900       5.44014555       5.13279995      -0.00577333      -0.00545582       0.00000747
Mg       6.28173903       7.25352744       7.69920000      -0.00227852       0.00184199       0.00000456
Mg       9.42260850       5.44014555       5.13279995      -0.00017926      -0.00207234       0.00001007
Mg       9.42260853       7.25352744       7.69920000       0.00253521       0.00284551       0.00000668
Mg      -4.71130425       8.16021833       5.13279995      -0.00039216      -0.00204501       0.00001053
Mg      -4.71130422       9.97360022       7.69920000      -0.00186602      -0.00089150       0.00000538
Mg      -1.57043475       8.16021833       5.13279995      -0.00078997      -0.00213524       0.00000965
Mg      -1.57043472       9.97360022       7.69920000      -0.00196995       0.00012312       0.00000562
Mg       1.57043475       8.16021833       5.13279995       0.00516522       0.00149994       0.00000977
Mg       1.57043478       9.97360022       7.69920000       0.00304105       0.00411146       0.00000375
Mg       4.71130425       8.16021833       5.13279995      -0.00577337      -0.00545643       0.00000795
Mg       4.71130428       9.97360022       7.69920000      -0.00227794       0.00184114       0.00000447
Mg       7.85217375       8.16021833       5.13279995      -0.00018071      -0.00207028       0.00000959
Mg       7.85217378       9.97360022       7.69920000       0.00253519       0.00284514       0.00000691
Mg       0.00000000       0.00000000      10.26560005      -0.00039362      -0.00204360      -0.00000347
Mg       0.00000003       1.81338189      12.83199995      -0.00186558      -0.00088937      -0.00000902
Mg       3.14086950       0.00000000      10.26560005      -0.00079159      -0.00213295      -0.00000350
Mg       3.14086953       1.81338189      12.83199995      -0.00197154       0.00012502      -0.00000919
Mg       6.28173900       0.00000000      10.26560005       0.00516439       0.00150029      -0.00000267
Mg       6.28173903       1.81338189      12.83199995       0.00304002       0.00411175      -0.00000760
Mg       9.42260850       0.00000000      10.26560005      -0.00577161      -0.00545727      -0.00000360
Mg       9.42260853       1.81338189      12.83199995      -0.00227554       0.00184004      -0.00000896
Mg      12.56347800       0.00000000      10.26560005      -0.00017944      -0.00207037      -0.00000382
Mg      12.56347803       1.81338189      12.83199995       0.00253614       0.00284408      -0.00000919
Mg      -1.57043475       2.72007278      10.26560005      -0.00039224      -0.00204510      -0.00000350
Mg      -1.57043472       4.53345467      12.83199995      -0.00186452      -0.00089079      -0.00001013
Mg       1.57043475       2.72007278      10.26560005      -0.00079223      -0.00213278      -0.00000380
Mg       1.57043478       4.53345467      12.83199995      -0.00197121       0.00012456      -0.00000898
Mg       4.71130425       2.72007278      10.26560005       0.00516245       0.00150208      -0.00000181
Mg       4.71130428       4.53345467      12.83199995       0.00303885       0.00411357      -0.00000711
Mg       7.85217375       2.72007278      10.26560005      -0.00577272      -0.00545620      -0.00000291
Mg       7.85217378       4.53345467      12.83199995      -0.00227800       0.00184188      -0.00000917
Mg      10.99304325       2.72007278      10.26560005      -0.00017833      -0.00207119      -0.00000254
Mg      10.99304328       4.53345467      12.83199995       0.00253680       0.00284457      -0.00000961
Mg      -3.14086950       5.44014555      10.26560005      -0.00039130      -0.00204471      -0.00000366
Mg      -3.14086947       7.25352744      12.83199995      -0.00186383      -0.00089131      -0.00000909
Mg       0.00000000       5.44014555      10.26560005      -0.00079072      -0.00213430      -0.00000266
Mg       0.00000003       7.25352744      12.83199995      -0.00196931       0.00012298      -0.00000914
Mg       3.14086950       5.44014555      10.26560005       0.00516275       0.00150204      -0.00000159
Mg       3.14086953       7.25352744      12.83199995       0.00303956       0.00411223      -0.00000787
Mg       6.28173900       5.44014555      10.26560005      -0.00577356      -0.00545525      -0.00000285
Mg       6.28173903       7.25352744      12.83199995      -0.00227806       0.00184286      -0.00000794
Mg       9.42260850       5.44014555      10.26560005      -0.00018005      -0.00207083      -0.00000227
Mg       9.42260853       7.25352744      12.83199995       0.00253586       0.00284564      -0.00000920
Mg      -4.71130425       8.16021833      10.26560005      -0.00039385      -0.00204478      -0.00000308
Mg      -4.71130422       9.97360022      12.83199995      -0.00186552      -0.00088981      -0.00001022
Mg      -1.57043475       8.16021833      10.26560005      -0.00079075      -0.00213567      -0.00000335
Mg      -1.57043472       9.97360022      12.83199995      -0.00196999       0.00012343      -0.00000789
Mg       1.57043475       8.16021833      10.26560005       0.00516327       0.00149952      -0.00000209
Mg       1.57043478       9.97360022      12.83199995       0.00304176       0.00411104      -0.00000838
Mg       4.71130425       8.16021833      10.26560005      -0.00577293      -0.00545626      -0.00000282
Mg       4.71130428       9.97360022      12.83199995      -0.00227731       0.00184153      -0.00000794
Mg       7.85217375       8.16021833      10.26560005      -0.00018138      -0.00206979      -0.00000249
Mg       7.85217378       9.97360022      12.83199995       0.00253506       0.00284528      -0.00000911
120
Lattice="15.7043475 0.0 0.0 -6.281739 10.88029111 0.0 0.0 0.0 15.3984" Properties=species:S:1:pos:R:3:forces:R:3 energy=-179.8814232 stress="-0.010047325669976473 -0.00011641655955937414 -1.4716230217007547e-07 -0.00011641655955937414 -0.007754875984768833 1.6440135037576503e-07 -1.4716230217007547e-07 1.6440135037576503e-07 -0.0055581550525643526" free_energy=-179.88598796 pbc="T T T"
Mg      15.68915006       0.00684457      15.39486807       0.05282416      -0.03501456       0.01699910
Mg      -0.01080770       1.80812725       2.55914263       0.03945866       0.01848928       0.01428220
Mg       3.14157849       0.00250802      15.39623853      -0.02013146      -0.00866500       0.00034138
Mg       3.14399017       1.80307847       2.57469810      -0.02846144       0.03145934      -0.03607851
Mg      -0.00280700      10.87341477       0.00775094       0.01403405       0.01414801      -0.02316729
Mg       6.28023214       1.80591866       2.57239496       0.00776345       0.04488713      -0.02103815
Mg       3.14049652      10.87363020       0.00588157      -0.00502472       0.01102006      -0.02169886
Mg       9.41316833       1.80865440       2.56178684       0.03230441       0.02978093       0.01329672
Mg      12.56429174       0.00086944       0.00349128      -0.01738596      -0.00161633      -0.00283423
Mg      12.56328537       1.81309595       2.56406103      -0.01365293       0.00846446       0.00135764
Mg      -1.56571365       2.72392048       0.00100752      -0.03060967       0.01026933      -0.00901158
Mg      -1.57745629       4.53852325       2.56412478       0.02489913      -0.01698242      -0.00080649
Mg       1.56822527       2.71340131      15.38624327       0.01288047       0.01592303       0.03229217
Mg       1.57563619       4.53119352       2.56298807      -0.02088689      -0.02060452       0.00540371
Mg       4.70563018       2.71675092       0.00002818       0.01902585       0.01080511       0.00827028
Mg       4.71163671       4.53578827       2.56047629       0.00319588      -0.00891084       0.01948646
Mg       7.85876216       2.72128517       0.00060377      -0.02997020      -0.02321838      -0.00169000
Mg       7.85106842       4.53534446       2.56160283       0.01037464       0.00170137       0.02161235
Mg      10.99162879       2.71156787      15.39330621       0.01180430       0.02735440       0.01851214
Mg      10.99699286       4.54025224       2.56656173      -0.02220559      -0.02340262      -0.00891350
Mg      12.55674972       5.45088723      15.39756433       0.02500043      -0.03110962       0.00315168
Mg      -3.13005900       7.25667718       2.56582354      -0.02550189       0.00457817       0.01426734
Mg       0.00262266       5.44035631       0.00502157      -0.01169713      -0.00496863      -0.00786322
Mg      -0.00217747       7.25091062       2.56566616       0.00761384       0.01373363       0.00290694
Mg       3.14196931       5.44624907       0.00230745       0.00509240      -0.03361526      -0.00895404
Mg       3.13718975       7.24852675       2.57424353       0.01917028       0.03043091      -0.02082653
Mg       6.28446336       5.43936740       0.00417882      -0.01716512      -0.00822263      -0.01910742
Mg       6.29454659       7.25416525       2.56736322      -0.04281274      -0.00172855      -0.00052581
Mg       9.42119442       5.43998355      15.39728146      -0.00084904      -0.00532163       0.01134230
Mg       9.43181634       7.26200722       2.56193790      -0.01172668      -0.03293496       0.01603825
Mg      10.98632358       8.16098202       0.00597319       0.00742527       0.01897414      -0.00835705
Mg      -4.70401991       9.97176363       2.57327020      -0.01841945       0.01519348      -0.02379482
Mg      -1.58279172       8.16481961      15.39749735       0.04415992      -0.01335984       0.01506168
Mg      -1.56909165       9.97893940       2.56795652      -0.00811814      -0.02607464       0.00266222
Mg       1.58202522       8.14815122       0.00230668      -0.04758551       0.04092100       0.00089522
Mg       1.56500764       9.97821216       2.56270274       0.02481363      -0.03220181       0.01563949
Mg       4.70532250       8.16245771      15.39647705       0.02511905      -0.01676806       0.02686425
Mg       4.71351382       9.97495928       2.57312592      -0.01552576      -0.01265236      -0.02238111
Mg       7.84338500       8.16321825       0.00785503       0.01746398      -0.01420174      -0.01880877
Mg       7.85243039       9.96997817       2.56263222       0.00894795       0.01147396       0.01885289
Mg      -6.27803962      10.87970836       5.12931421      -0.02387408      -0.00825683       0.00842345
Mg       0.00702025       1.81898023       7.69471198      -0.01691991      -0.03353951       0.01324977
Mg       3.14210512       0.00651675       5.13849074      -0.00959434      -0.04232607      -0.00941592
Mg       3.14607782       1.80926054       7.69681063      -0.01909311       0.03208806       0.00756917
Mg       6.27527496       0.00112578       5.12990798       0.03980006       0.00530507       0.02365469
Mg       6.29124877       1.81366238       7.69900228      -0.02766446       0.01277794      -0.01702761
Mg       9.42705544       0.00229150       5.13178935      -0.03480777      -0.00065902       0.00782493
Mg       9.41818663       1.81377010       7.70719239       0.03462203       0.00790489      -0.02102076
Mg       6.28035608      10.87697480       5.12666399       0.01186426       0.01216689       0.01153011
Mg      12.57162331       1.82444105       7.69341344      -0.02204384      -0.03480123       0.01167177
Mg      14.13167664       2.72169851       5.12700553       0.00806476      -0.01485965       0.00345841
Mg      -1.56256492       4.53242615       7.69520642      -0.03018030       0.00873744       0.01597778
Mg       1.57074749       2.71059866       5.13165446      -0.00199800       0.03108683      -0.00991952
Mg       1.56253405       4.54034874       7.69479375       0.04919783      -0.02098933       0.01193639
Mg       4.70825959       2.71263131       5.12495385       0.01549806       0.04410362       0.02587061
Mg       4.71660569       4.53830140       7.70034472      -0.02609155      -0.02448846      -0.02807997
Mg       7.85927796       2.73657241       5.13355124      -0.02818199      -0.05214191      -0.00798890
Mg       7.85464483       4.53477804       7.69348103       0.00433774       0.00449899       0.01001185
Mg      10.98886212       2.72297292       5.12984315       0.01203299      -0.00789770       0.00201590
Mg      10.99652795       4.54462731       7.69522875      -0.00390486      -0.02917609       0.01061863
Mg      -3.13370288       5.43949883       5.12824310      -0.01028409       0.01360868       0.01782121
Mg      -3.13225862       7.25747427       7.70498533      -0.02495029      -0.02311430      -0.02436963
Mg       0.00423107       5.43356842       5.13594091      -0.00918782       0.01064326      -0.03011579
Mg      -0.00705565       7.25398637       7.68882117       0.02526832       0.01293764       0.03813176
Mg       3.13566046       5.45045964       5.13182384       0.01816857      -0.05115559       0.00022385
Mg       3.13875836       7.25324053       7.68913191       0.00244825       0.01600946       0.03218943
Mg       6.27195858       5.44161559       5.13521873       0.01663567      -0.01308696      -0.01590016
Mg       6.28336179       7.24754024       7.70105166      -0.01488805       0.01668052      -0.00397708
Mg       9.42765798       5.44273985       5.13791838      -0.01869067       0.00589841      -0.02780429
Mg       9.42376779       7.25787118       7.70116638       0.00066255      -0.01207202       0.00488286
Mg      10.98360717       8.15641698       5.13267230       0.04770595       0.00248786       0.00373639
Mg      -4.70961145       9.96348808       7.69674950      -0.02365696       0.03600780       0.02071294
Mg      -1.56473219       8.16483049       5.14019888      -0.03092350      -0.01157245      -0.02615310
Mg      -1.58154096       9.97858688       7.70042587       0.04312073      -0.00520732      -0.00057594
Mg       1.56412072       8.16316406       5.13120021       0.01638001       0.00837413      -0.00068422
Mg       1.57143798       9.97756989       7.70666268      -0.00267176      -0.01129196      -0.03081891
Mg       4.70641068       8.15915196       5.13001792       0.01626057       0.00038561       0.00434663
Mg       4.71391010       9.97083119       7.69405878      -0.00896642       0.01882639       0.01605127
Mg       7.85000809       8.15063149       5.13096754       0.00220838       0.01782075       0.00331862
Mg       7.84282147       9.96663640       7.69009031       0.03275101       0.03591149       0.02276560
Mg      15.69894498       0.00022261      10.27202781       0.01205388      -0.01593700      -0.03586051
Mg      -0.00635596       1.80483836      12.83025916       0.01584981       0.02658549      -0.00294514
Mg       3.14301861       0.01124565      10.26870714      -0.02482043      -0.02907962      -0.00206277
Mg       3.14199198       1.81846342      12.82688660       0.00355635      -0.02362469       0.00236934
Mg      -0.00484438      10.87531621      10.26059757       0.01118478       0.02565902       0.02288338
Mg       6.28337901       1.81889526      12.83609331      -0.01137557      -0.02634360      -0.00963274
Mg       9.42656785       0.00028267      10.27233208      -0.01845612      -0.00060565      -0.00904403
Mg       9.42940459       1.81225415      12.82824228      -0.01218972       0.00574969       0.01054478
Mg      12.55861810       0.00058297      10.27518109       0.02436144       0.00293378      -0.03288187
Mg      12.56240131       1.80969271      12.83244311       0.01182903       0.00974756       0.00784597
Mg      -1.57213443       2.72463216      10.27023035       0.00372486      -0.01775661      -0.01756768
Mg      -1.56743959       4.53499586      12.83461059      -0.00891094      -0.00314264       0.00445041
Mg       1.56427227       2.72509719      10.26595683       0.01820887      -0.01401128      -0.01264888
Mg       1.56901338       4.53279423      12.82623756       0.00042921       0.00233417       0.01911716
Mg       4.71126992       2.72563576      10.25400521       0.00099006      -0.02406028       0.02964836
Mg       4.70409771       4.53233291      12.83259310       0.02844511       0.01283270      -0.00245452
Mg       7.84526010       2.72098204      10.26450307       0.02778555      -0.02406307       0.00860911
Mg       7.85399778       4.52850098      12.83232424      -0.00286500       0.01505331       0.00251902
Mg      10.99678214       2.71630221      10.26605215      -0.01877951       0.01467022      -0.00687408
Mg      11.00250330       4.54182346      12.83686584      -0.02096104      -0.03380336      -0.01172565
Mg      12.55432890       5.43144143      10.26767529       0.03693035       0.01703508      -0.00438458
Mg      -3.13647341       7.26149356      12.83391874      -0.00819853      -0.02261991      -0.00590352
Mg       0.00099751       5.43521221      10.26583903      -0.00550511       0.03716524      -0.00460939
Mg       0.00016301       7.25051719      12.83977106       0.00704346       0.01119214      -0.02420883
Mg       3.15071157       5.43756910      10.26085965      -0.02922916       0.02532123       0.00391374
Mg       3.13811961       7.25410236      12.83571004       0.00505580       0.00362980      -0.02656466
Mg       6.28816129       5.42522432      10.25795151      -0.02527118       0.05491375       0.02998988
Mg       6.28315343       7.24833798      12.83648181       0.00342753      -0.00909929      -0.01932789
Mg       9.41578034       5.43844399      10.26651287       0.01524063      -0.00297389       0.00494990
Mg       9.43463866       7.25012387      12.84678318      -0.03961633       0.00918230      -0.04014976
Mg      -4.70187489       8.14998759      10.26602613      -0.04343649       0.03034153       0.00826678
Mg      -4.71123609       9.97056005      12.83275401       0.00525453       0.01098780       0.00150228
Mg      -1.57769390       8.16258556      10.26186348       0.03332637      -0.02192403       0.01419556
Mg      -1.56605575       9.95863688      12.83459289      -0.00858905       0.05809819      -0.01061232
Mg       1.56976141       8.16838823      10.26141769       0.00034812      -0.03964543       0.01435890
Mg       1.56955571       9.98246156      12.83640836       0.01031240      -0.02695330      -0.00151615
Mg       4.71025284       8.16800808      10.26769008      -0.00078053      -0.04529863      -0.01216402
Mg       4.71928963       9.96410880      12.83377323      -0.02382423       0.02170771       0.01125310
Mg       7.84833536       8.16156520      10.26239811       0.01756426      -0.00797536       0.02462899
Mg       7.85579844       9.96603744      12.84347761      -0.00954678       0.00081161      -0.02977988
120
Lattice="15.7043475 0.0 0.0 -6.281739 10.88029111 0.0 0.0 0.0 15.3984" Properties=species:S:1:pos:R:3:forces:R:3 energy=-179.82683856 stress="-0.010088086818998476 -0.0001709834773791751 -5.052432980802113e-06 -0.0001709834773791751 -0.007765063544484845 7.005632122128642e-06 -5.052432980802113e-06 7.005632122128642e-06 -0.0055895338839287104" free_energy=-179.83133249 pbc="T T T"
Mg      15.67397347       0.01367533      15.39134291       0.10329341      -0.05819403       0.03561757
Mg      -0.02160004       1.80288023       2.55189091       0.07480282       0.04038839       0.02914837
Mg       3.14227940       0.00501288      15.39407721      -0.03735833      -0.01379106       0.00391792
Mg       3.14709954       1.79278778       2.58298182      -0.05503370       0.06306369      -0.07614695
Mg      -0.00560859      10.86654430       0.01549264       0.02126464       0.03009361      -0.04849521
Mg       6.27872838       1.79847339       2.57838170       0.01501051       0.08100731      -0.04035693
Mg       3.14012138      10.86697385       0.01175452      -0.00249008       0.02490312      -0.03976515
Mg       9.40374086       1.80393888       2.55717903       0.06147834       0.05003411       0.02740199
Mg      12.56509856       0.00173834       0.00698133      -0.03380920       0.00054028      -0.00575440
Mg      12.56308740       1.81281350       2.56172263      -0.02820813       0.01413859       0.00263849
Mg      -1.56100463       2.72777254       0.00201134      -0.06446653       0.02262715      -0.01878401
Mg      -1.58446797       4.54358530       2.56184921       0.05586063      -0.03601742      -0.00115998
Mg       1.56602098       2.70673637      15.37409932       0.02376182       0.03218123       0.06440810
Mg       1.58082921       4.52892433       2.55957810      -0.03784807      -0.04128148       0.00922236
Mg       4.69996364       2.71343341       0.00005975       0.03399742       0.01595067       0.01648141
Mg       4.71197040       4.53811861       2.55456038       0.00528701      -0.02183546       0.04079395
Mg       7.86533867       2.72248853       0.00120677      -0.05495180      -0.03960020      -0.00394774
Mg       7.84996704       4.53723524       2.55681439       0.02425813       0.00304788       0.04442987
Mg      10.99021898       2.70307395      15.38821981       0.02140685       0.05582011       0.03607468
Mg      11.00093352       4.54704078       2.56672003      -0.04467277      -0.04278262      -0.01713212
Mg      12.55003115       5.46161672      15.39672989       0.04003548      -0.05689417       0.00590611
Mg      -3.11925862       7.25982887       2.56525272      -0.04662976       0.01136677       0.02972708
Mg       0.00524057       5.44056521       0.01003991      -0.02252515      -0.00684562      -0.01671735
Mg      -0.00435196       7.24829946       2.56493335       0.01900732       0.02498073       0.00622197
Mg       3.14307100       5.45233953       0.00461136       0.00371929      -0.06785528      -0.02214991
Mg       3.13351754       7.24353825       2.58207870       0.03540172       0.05314582      -0.03991140
Mg       6.28718090       5.43858608       0.00835009      -0.02989464      -0.00862242      -0.03793195
Mg       6.30733718       7.25480250       2.56832624      -0.08491010      -0.00865006       0.00210060
Mg       9.41977999       5.43981969      15.39616739      -0.00221692      -0.00902354       0.02393704
Mg       9.44101968       7.27047404       2.55748222      -0.02721914      -0.05953199       0.03013785
Mg      10.97960674       8.16175332       0.01194300       0.01540801       0.04291476      -0.01557234
Mg      -4.69674290       9.96993313       2.58013080      -0.03230781       0.02794422      -0.04823187
Mg      -1.59513106       8.16941566      15.39660054       0.08449636      -0.02647895       0.02876678
Mg      -1.56775169       9.98426845       2.56951422      -0.01406127      -0.05009174       0.00741350