108
Lattice="10.8024 0.0 0.0 0.0 10.8024 0.0 0.0 0.0 10.8567" Properties=species:S:1:pos:R:3:forces:R:3 energy=-405.07119223 stress="-0.010222419593054644 -1.5154384157644552e-08 -2.3074859238390406e-08 -1.5154384157644552e-08 -0.010222483275172256 3.162572674085047e-08 -2.3074859238390406e-08 3.162572674085047e-08 -0.008675200199251342" free_energy=-405.08361937 pbc="T T T"
Cu       0.00000000       0.00000000       0.00000000      -0.00002972       0.00004664      -0.00001854
Cu       1.80040360       1.80040360       0.00000000      -0.00950281      -0.00946512      -0.00000396
Cu       0.00000000       1.80040360       1.80945362       0.00001069      -0.00984003      -0.00966069
Cu       1.80040360       0.00000000       1.80945362      -0.00988406       0.00007706      -0.00963869
Cu       3.60079640       0.00000000       0.00000000       0.00637929       0.00005485      -0.00003838
Cu       5.40120000       1.80040360       0.00000000      -0.00001081      -0.00638836      -0.00001316
Cu       3.60079640       1.80040360       1.80945362      -0.00240003       0.00240514       0.00473449
Cu       5.40120000       0.00000000       1.80945362      -0.00000278       0.00002654       0.00155453
Cu       7.20160360       0.00000000       0.00000000      -0.00635441      -0.00000779      -0.00004509
Cu       9.00199640       1.80040360       0.00000000       0.00951547      -0.00949351       0.00001310
Cu       7.20160360       1.80040360       1.80945362       0.00238805       0.00238044       0.00470877
Cu       9.00199640       0.00000000       1.80945362       0.00988461       0.00001394      -0.00966222
Cu       0.00000000       3.60079640       0.00000000       0.00000608       0.00632263       0.00004245
Cu       1.80040360       5.40120000       0.00000000      -0.00640257      -0.00004991       0.00002232
Cu       0.00000000       5.40120000       1.80945362      -0.00003121      -0.00003068       0.00160497
Cu       1.80040360       3.60079640       1.80945362       0.00235840      -0.00240967       0.00476134
Cu       3.60079640       3.60079640       0.00000000       0.00945507       0.00941908       0.00002479
Cu       5.40120000       5.40120000       0.00000000       0.00002807      -0.00000234       0.00000643
Cu       3.60079640       5.40120000       1.80945362       0.00984975      -0.00004956      -0.00957645
Cu       5.40120000       3.60079640       1.80945362      -0.00002288       0.00984255      -0.00962415
Cu       7.20160360       3.60079640       0.00000000      -0.00945669       0.00946113       0.00002101
Cu       9.00199640       5.40120000       0.00000000       0.00637226       0.00002124       0.00004453
Cu       7.20160360       5.40120000       1.80945362      -0.00981901       0.00002901      -0.00959481
Cu       9.00199640       3.60079640       1.80945362      -0.00233334      -0.00235945       0.00473976
Cu       0.00000000       7.20160360       0.00000000      -0.00006799      -0.00636301       0.00000956
Cu       1.80040360       9.00199640       0.00000000      -0.00952046       0.00951597      -0.00003362
Cu       0.00000000       9.00199640       1.80945362      -0.00005638       0.00986910      -0.00963835
Cu       1.80040360       7.20160360       1.80945362       0.00234312       0.00233259       0.00478051
Cu       3.60079640       7.20160360       0.00000000       0.00950137      -0.00947560      -0.00001446
Cu       5.40120000       9.00199640       0.00000000       0.00005160       0.00639369      -0.00004214
Cu       3.60079640       9.00199640       1.80945362      -0.00234557      -0.00235337       0.00476246
Cu       5.40120000       7.20160360       1.80945362       0.00005010      -0.00986868      -0.00960428
Cu       7.20160360       7.20160360       0.00000000      -0.00943418      -0.00945136      -0.00000674
Cu       9.00199640       9.00199640       0.00000000       0.00946487       0.00947414      -0.00002226
Cu       7.20160360       9.00199640       1.80945362       0.00240250      -0.00240644       0.00472694
Cu       9.00199640       7.20160360       1.80945362      -0.00239427       0.00235071       0.00475424
Cu       0.00000000       0.00000000       3.61889638       0.00000469       0.00001927      -0.00159411
Cu       1.80040360       1.80040360       3.61889638       0.00235765       0.00239806      -0.00477489
Cu       0.00000000       1.80040360       5.42835000       0.00005021      -0.00638469      -0.00001415
Cu       1.80040360       0.00000000       5.42835000      -0.00637600       0.00001666       0.00003559
Cu       3.60079640       0.00000000       3.61889638       0.00984728       0.00002323       0.00964200
Cu       5.40120000       1.80040360       3.61889638      -0.00002913      -0.00984325       0.00960612
Cu       3.60079640       1.80040360       5.42835000       0.00944640      -0.00945668       0.00002500
Cu       5.40120000       0.00000000       5.42835000      -0.00002629      -0.00003079       0.00003252
Cu       7.20160360       0.00000000       3.61889638      -0.00984731      -0.00002511       0.00961648
Cu       9.00199640       1.80040360       3.61889638      -0.00232803       0.00237854      -0.00480950
Cu       7.20160360       1.80040360       5.42835000      -0.00949085      -0.00947684      -0.00000001
Cu       9.00199640       0.00000000       5.42835000       0.00639791      -0.00004682      -0.00000326
Cu       0.00000000       3.60079640       3.61889638       0.00002746       0.00987131       0.00958484
Cu       1.80040360       5.40120000       3.61889638      -0.00986079      -0.00003292       0.00964692
Cu       0.00000000       5.40120000       5.42835000       0.00001354       0.00002296      -0.00005208
Cu       1.80040360       3.60079640       5.42835000      -0.00943826       0.00947605      -0.00001266
Cu       3.60079640       3.60079640       3.61889638      -0.00239983      -0.00235117      -0.00475076
Cu       5.40120000       5.40120000       3.61889638       0.00001264       0.00002146      -0.00153721
Cu       3.60079640       5.40120000       5.42835000       0.00638829       0.00000854      -0.00001222
Cu       5.40120000       3.60079640       5.42835000      -0.00005081       0.00642122      -0.00001231
Cu       7.20160360       3.60079640       3.61889638       0.00237539      -0.00231162      -0.00477506
Cu       9.00199640       5.40120000       3.61889638       0.00984912       0.00003591       0.00960355
Cu       7.20160360       5.40120000       5.42835000      -0.00639864       0.00006975      -0.00003914
Cu       9.00199640       3.60079640       5.42835000       0.00949050       0.00951166      -0.00005004
Cu       0.00000000       7.20160360       3.61889638      -0.00004404      -0.00989104       0.00964328
Cu       1.80040360       9.00199640       3.61889638       0.00235591      -0.00236817      -0.00471127
Cu       0.00000000       9.00199640       5.42835000      -0.00001736       0.00636238       0.00000591
Cu       1.80040360       7.20160360       5.42835000      -0.00945719      -0.00949746       0.00000521
Cu       3.60079640       7.20160360       3.61889638      -0.00234981       0.00232818      -0.00468833
Cu       5.40120000       9.00199640       3.61889638       0.00001713       0.00982394       0.00966491
Cu       3.60079640       9.00199640       5.42835000       0.00949186       0.00944839       0.00004726
Cu       5.40120000       7.20160360       5.42835000       0.00001076      -0.00639253       0.00001637
Cu       7.20160360       7.20160360       3.61889638       0.00239295       0.00233729      -0.00473208
Cu       9.00199640       9.00199640       3.61889638      -0.00237111      -0.00241209      -0.00474487
Cu       7.20160360       9.00199640       5.42835000      -0.00947550       0.00940996       0.00002047
Cu       9.00199640       7.20160360       5.42835000       0.00944638      -0.00946665      -0.00001759
Cu       0.00000000       0.00000000       7.23780362       0.00003646      -0.00000338       0.00161499
Cu       1.80040360       1.80040360       7.23780362       0.00239587       0.00235765       0.00477847
Cu       0.00000000       1.80040360       9.04724638       0.00003373      -0.00989940       0.00967324
Cu       1.80040360       0.00000000       9.04724638      -0.00986681       0.00005028       0.00960447
Cu       3.60079640       0.00000000       7.23780362       0.00985300       0.00000529      -0.00960384
Cu       5.40120000       1.80040360       7.23780362      -0.00005305      -0.00988406      -0.00959201
Cu       3.60079640       1.80040360       9.04724638      -0.00239590       0.00234294      -0.00475685
Cu       5.40120000       0.00000000       9.04724638       0.00000218      -0.00001146      -0.00158512
Cu       7.20160360       0.00000000       7.23780362      -0.00988229      -0.00004485      -0.00957326
Cu       9.00199640       1.80040360       7.23780362      -0.00235079       0.00233000       0.00479527
Cu       7.20160360       1.80040360       9.04724638       0.00236274       0.00232091      -0.00470869
Cu       9.00199640       0.00000000       9.04724638       0.00986320      -0.00002102       0.00966492
Cu       0.00000000       3.60079640       7.23780362       0.00005949       0.00983035      -0.00962740
Cu       1.80040360       5.40120000       7.23780362      -0.00981725      -0.00001331      -0.00966789
Cu       0.00000000       5.40120000       9.04724638      -0.00000329      -0.00000111      -0.00155498
Cu       1.80040360       3.60079640       9.04724638       0.00237481      -0.00243273      -0.00475077
Cu       3.60079640       3.60079640       7.23780362      -0.00239765      -0.00238886       0.00472485
Cu       5.40120000       5.40120000       7.23780362      -0.00001722       0.00004294       0.00153028
Cu       3.60079640       5.40120000       9.04724638       0.00985687      -0.00001310       0.00958678
Cu       5.40120000       3.60079640       9.04724638      -0.00002155       0.00982488       0.00963470
Cu       7.20160360       3.60079640       7.23780362       0.00233789      -0.00235247       0.00475495
Cu       9.00199640       5.40120000       7.23780362       0.00983006       0.00006902      -0.00964927
Cu       7.20160360       5.40120000       9.04724638      -0.00985255       0.00005557       0.00963504
Cu       9.00199640       3.60079640       9.04724638      -0.00235513      -0.00239352      -0.00469379
Cu       0.00000000       7.20160360       7.23780362      -0.00001866      -0.00982779      -0.00965402
Cu       1.80040360       9.00199640       7.23780362       0.00238719      -0.00234319       0.00474376
Cu       0.00000000       9.00199640       9.04724638      -0.00003722       0.00989930       0.00963151
Cu       1.80040360       7.20160360       9.04724638       0.00235970       0.00238110      -0.00478651
Cu       3.60079640       7.20160360       7.23780362      -0.00234205       0.00238582       0.00470051
Cu       5.40120000       9.00199640       7.23780362       0.00000032       0.00983990      -0.00961887
Cu       3.60079640       9.00199640       9.04724638      -0.00233486      -0.00232914      -0.00480632
Cu       5.40120000       7.20160360       9.04724638       0.00004761      -0.00981522       0.00958869
Cu       7.20160360       7.20160360       7.23780362       0.00236068       0.00239953       0.00473676
Cu       9.00199640       9.00199640       7.23780362      -0.00238858      -0.00239791       0.00476621
Cu       7.20160360       9.00199640       9.04724638       0.00237253      -0.00237287      -0.00474831
Cu       9.00199640       7.20160360       9.04724638      -0.00241140       0.00241108      -0.00473788
108
Lattice="10.8024 0.0 0.0 0.0 10.8024 0.0 0.0 0.0 10.8567" Properties=species:S:1:pos:R:3:forces:R:3 energy=-405.04842437 stress="-0.010553598448813418 1.9202308659727013e-05 -1.1465839509521321e-06 1.9202308659727013e-05 -0.010570612278403809 -1.2868275402561661e-05 -1.1465839509521321e-06 -1.2868275402561661e-05 -0.008900338673572537" free_energy=-405.06082798 pbc="T T T"
Cu      10.80235204      10.79798247       0.00022549      -0.02882957       0.03098875      -0.00491639
Cu       1.79904423       1.79394539       0.00275500      -0.00050652       0.04554214      -0.04048439
Cu       0.00028853       1.80137258       1.80528834      -0.02617693      -0.01107261      -0.00553743
Cu       1.79416467       0.00430530       1.80357786       0.04930213      -0.04501779       0.03942699
Cu       3.59593003       0.00395400       0.00082131       0.04164679      -0.02751672       0.00757878
Cu       5.41117937       1.80538761      10.85614631      -0.08442651      -0.05801604       0.02081948
Cu       3.59930599       1.80479618       1.81713701       0.03008492      -0.04849140      -0.05555309
Cu       5.40757331      10.80211763       1.80736132      -0.08519298       0.00433577       0.01418104
Cu       7.20471264       0.00245863       0.00065390      -0.01887444      -0.03992987       0.00143675
Cu       9.00102289       1.79758698      10.85541077       0.02382778       0.00740878       0.01864400
Cu       7.19820603       1.79551940       1.81115237       0.04485632       0.06096829       0.02136411
Cu       9.00116915       0.00189744       1.81828392       0.02912806      -0.02300038      -0.07096507
Cu       0.00552813       3.60374524       0.00436504      -0.04218582      -0.01725482      -0.04058037
Cu       1.79973482       5.39668524      10.85007502       0.03076219       0.03888073       0.05266134
Cu       0.00127209       5.40479925       1.80607947       0.00135153      -0.02265067       0.03052347
Cu       1.79922387       3.60165994       1.80869962       0.00381304       0.02158884       0.00355559
Cu       3.60224068       3.59813631       0.00104561      -0.01771494       0.01116806      -0.00056953
Cu       5.40478413       5.39594031      10.85193999      -0.02553575       0.04158904       0.02391861
Cu       3.59919527       5.40586404       1.81056089       0.02350977      -0.03247359      -0.01913624
Cu       5.39838911       3.60164406       1.80242564       0.02027260       0.01769797       0.06694444
Cu       7.20559563       3.59931388       0.00561248      -0.00264747       0.03439614      -0.02216760
Cu       9.00329971       5.39902483       0.00176324       0.00476889       0.05323712      -0.00695742
Cu       7.20039827       5.40271136       1.81291723       0.00937732      -0.01001799      -0.01540698
Cu       9.00596498       3.60201124       1.80614428      -0.04046046      -0.03823144       0.03913194
Cu       0.01162187       7.20038153       0.00103779      -0.09359245      -0.00435858      -0.02518737
Cu       1.79404250       9.00084227      10.85532858       0.06539598      -0.00512515      -0.00856822
Cu       0.00578155       8.99758038       1.80853807      -0.01114130       0.02838708       0.00648702
Cu       1.80178642       7.19544915       1.80967542       0.01803920       0.03729091       0.01481374
Cu       3.60631340       7.20189894       0.00092619      -0.05653910      -0.02417726      -0.04521693
Cu       5.39108107       8.99901569      10.85447264       0.06021542       0.04211348       0.00064821
Cu       3.59905494       8.99630559       1.80623320      -0.01072539       0.05640903       0.03115012
Cu       5.40482658       7.20684493       1.80323121      -0.00741607      -0.04730074       0.02271939
Cu       7.19945544       7.19797778      10.85191448       0.03113542       0.04158409       0.02710039
Cu       9.00673973       9.00222476      10.85396976      -0.01829196      -0.01864986       0.01891239
Cu       7.19809498       9.00883281       1.80509118       0.04640421      -0.05487376       0.00488424
Cu       9.00862346       7.21017433       1.81400605      -0.04969188      -0.04460767      -0.04954205
Cu       0.00187432      10.80063424       3.61266062       0.00577089       0.00781936       0.05327628
Cu       1.79546701       1.80425098       3.61231147       0.00941983      -0.02234922       0.07889361
Cu      10.79826527       1.79542521       5.42867168       0.06309248       0.02825085      -0.00697200
Cu       1.80436117      10.80179809       5.42764909      -0.02861562       0.03389875       0.00230855
Cu       3.59932825       0.00008221       3.61912991       0.02886154       0.00514346      -0.01877201
Cu       5.40080560       1.80650534       3.62139646      -0.00688604      -0.03027082       0.01607481
Cu       3.60083432       1.80330405       5.43176443       0.01346320      -0.02052534      -0.01423815
Cu       5.40154643      10.79874836       5.42537298      -0.00998220       0.03030128       0.01918009
Cu       7.20095081       0.00259279       3.61900158      -0.02036872      -0.00689704       0.03900214
Cu       9.00465271       1.79565713       3.61944443      -0.02780810       0.04170270      -0.00617196
Cu       7.20242199       1.80357994       5.43876874      -0.01071024      -0.04391484      -0.06340106
Cu       8.99856026      10.80156098       5.42893908       0.02929442      -0.01663192      -0.00838737
Cu      10.79943474       3.59663261       3.61977045       0.02538846       0.02880115       0.01711258
Cu       1.79635756       5.40340563       3.62375671       0.02182336      -0.03017188      -0.02660108
Cu       0.00343462       5.40004954       5.43064283      -0.07543073       0.00902437      -0.00373953
Cu       1.80544249       3.61530337       5.43734771      -0.05566709      -0.12085375      -0.05905822
Cu       3.59057657       3.59767785       3.61931360       0.07932687       0.06089489       0.02045541
Cu       5.40153412       5.40467600       3.61846776      -0.02652967      -0.04367049      -0.02593599
Cu       3.60353643       5.40113864       5.43550923      -0.00216274       0.00629546      -0.05901364
Cu       5.40895137       3.60420402       5.43170494      -0.08031791      -0.03073672      -0.03173003
Cu       7.20259904       3.59475937       3.62834410       0.00054135       0.02094456      -0.08247086
Cu       9.00420765       5.39443694       3.61320921      -0.00540526       0.04371968       0.04521384
Cu       7.19039622       5.40211982       5.42281743       0.11963681       0.01535813       0.00614553
Cu       9.00211209       3.60298497       5.42959657       0.01004587       0.01603437      -0.00776411
Cu       0.00260738       7.20044115       3.62081867      -0.03026438      -0.00096581      -0.00586893
Cu       1.80299358       9.00437422       3.62562754       0.00743905      -0.01738360      -0.07140311
Cu       0.00155090       9.00175615       5.42546917      -0.03077727       0.02092532       0.02808202
Cu       1.79223234       7.19989034       5.42042265       0.05720578       0.00224067       0.05524497
Cu       3.60388416       7.19986323       3.61955690      -0.01220645       0.01011884      -0.00593093
Cu       5.40532673       8.99805795       3.61957938      -0.02839756       0.02115833       0.00151409
Cu       3.59989948       9.00091486       5.42538818       0.03009981      -0.00073253       0.01569010
Cu       5.39970257       7.19443308       5.43489073      -0.00309618       0.06680669      -0.04853772
Cu       7.20219395       7.20228977       3.61630912       0.01493840       0.00797220       0.00967643
Cu       9.00415364       9.00489479       3.61819189      -0.02077615      -0.01403576       0.01040466
Cu       7.19928465       9.00105562       5.42919965      -0.00054446      -0.00453137       0.00404573
Cu       9.00305709       7.20236247       5.42786894      -0.00080190      -0.03092180       0.00555227
Cu       0.00272048      10.79992722       7.23308769      -0.02115339       0.03054415       0.03195809
Cu       1.80264099       1.80268302       7.24168207      -0.01480594      -0.01601073      -0.00474003
Cu      10.79844708       1.80561273       9.05061652       0.02127310      -0.04556139      -0.01183574
Cu       1.79712550      10.79513647       9.04886132      -0.00144678       0.05490666      -0.00848111
Cu       3.59906164      10.79952883       7.23931476       0.02255708       0.05139214      -0.02027788
Cu       5.40971931       1.79746610       7.23867639      -0.05563762      -0.00905105       0.01443199
Cu       3.60497001       1.80068511       9.05253544      -0.02482205       0.00957789      -0.04256576
Cu       5.40063860      10.79027474       9.05240603      -0.00833189       0.09096369      -0.01803540
Cu       7.20495807      10.80079584       7.23588665      -0.03793124       0.01012902       0.00527191
Cu       9.00156225       1.80382937       7.23304838      -0.00284786      -0.01842265       0.06851092
Cu       7.19573963       1.79688666       9.05461091       0.06058393       0.02612921      -0.07388434
Cu       9.00106307      10.79938224       9.04977947       0.03606457       0.05000769      -0.02009519
Cu       0.00000443       3.59779614       7.23480630      -0.01045082       0.02274233       0.00964688
Cu       1.79802783       5.40245816       7.23413123       0.00620239       0.00662190       0.01758800
Cu       0.00296331       5.40584730       9.04489895      -0.05624323      -0.03997142       0.00502858
Cu       1.79536731       3.60895362       9.04814597       0.04338773      -0.08853736      -0.02432717
Cu       3.60260180       3.60165638       7.23489978       0.02207024      -0.01919871       0.06253017
Cu       5.41022476       5.40123176       7.23424740      -0.07712201      -0.00290455       0.07650177
Cu       3.59578733       5.39710265       9.04768054       0.05270904       0.03122221      -0.01499155
Cu       5.40460654       3.60153172       9.05298545      -0.00505657       0.01310288      -0.04795682
Cu       7.20152712       3.60758398       7.23475202       0.02288519      -0.04959470       0.06820584
Cu       8.99819784       5.39820730       7.24350773       0.04091664       0.02415946      -0.06742624
Cu       7.20455892       5.40798974       9.04646763      -0.02753137      -0.04693873       0.02631338
Cu       9.00132741       3.60308867       9.05023241      -0.00743061      -0.01974006      -0.01264727
Cu       0.00342922       7.20316682       7.24051313      -0.05012617      -0.01173705      -0.05234394
Cu       1.80060139       9.00121485       7.23622831      -0.00434050      -0.00999048      -0.01962420
Cu      10.80090182       9.00149344       9.04252871      -0.00225891       0.00260113       0.02342528
Cu       1.79162611       7.19937355       9.04285311       0.09572099       0.03046284       0.01894887
Cu       3.59656521       7.20024477       7.23467526      -0.00082460      -0.01836296       0.01633359
Cu       5.39344280       9.00104806       7.24284373       0.05319714       0.00589336      -0.06764851
Cu       3.60076172       9.00216243       9.03381349      -0.04491452      -0.02339398       0.10613208
Cu       5.39998365       7.20423615       9.04748165      -0.00500580      -0.03589440      -0.00917267
Cu       7.19852783       7.19858660       7.23387838       0.02636761       0.05030403       0.02569393
Cu       8.99864874       9.00367887       7.24460154       0.02795215      -0.01970205      -0.06755814
Cu       7.20136778       9.01294334       9.04396429       0.00096643      -0.09474915       0.02759922
Cu       8.99776780       7.20074654       9.04067699       0.03447499       0.01411418       0.05791577
108
Lattice="10.8024 0.0 0.0 0.0 10.8024 0.0 0.0 0.0 10.8567" Properties=species:S:1:pos:R:3:forces:R:3 energy=-404.9814386 stress="-0.010797767309425466 -1.6311559949583307e-07 1.3839391807457837e-05 -1.6311559949583307e-07 -0.010812295938602676 -2.5361286310438716e-05 1.3839391807457837e-05 -2.5361286310438716e-05 -0.009165528131765884" free_energy=-404.99377121 pbc="T T T"
Cu      10.80229965      10.79356958       0.00045023      -0.05797294       0.05144965      -0.01176459
Cu       1.79768474       1.78749419       0.00550370       0.00305159       0.11223969      -0.08905036
Cu       0.00057296       1.80233993       1.80112208      -0.05067642      -0.01073147       0.01632560
Cu       1.78793320       0.00860379       1.79770808       0.10649056      -0.09292114       0.08588096
Cu       3.59106992       0.00790368       0.00164370       0.07777768      -0.05285692       0.01468656
Cu       5.42114577       1.81036287      10.85559566      -0.16731433      -0.11984412       0.04460227
Cu       3.59782001       1.80918141       1.82481194       0.06080363      -0.08948611      -0.11056926
Cu       5.41393355      10.80183590       1.80527108      -0.16429460       0.01138143       0.02018054
Cu       7.20781876       0.00491120       0.00130802      -0.02803181      -0.08109903       0.00623726
Cu       9.00005283       1.79477155      10.85412425       0.03901144       0.02163223       0.03942316
Cu       7.19481516       1.79064439       1.81285437       0.07915040       0.11258220       0.04195487
Cu       9.00034633       0.00379143       1.82710336       0.04721105      -0.04582526      -0.14177072
Cu       0.01104967       3.60669138       0.00872401      -0.07857308      -0.03367112      -0.07032993
Cu       1.79907058       5.39217632      10.84345797       0.06337653       0.07376108       0.09882111
Cu       0.00254429       5.40839505       1.80270987       0.00189831      -0.04065064       0.05792692
Cu       1.79804457       3.60252684       1.80794627       0.01207560       0.03912102       0.00968423
Cu       3.60368215       3.59547795       0.00209100      -0.04291472       0.01713746      -0.00445377
Cu       5.40836426       5.39068689      10.84718356      -0.04522036       0.06999669       0.05026311
Cu       3.59759770       5.41052323       1.81166524       0.03766426      -0.06320275      -0.02954727
Cu       5.39558124       3.60249443       1.79540776       0.03860180       0.03510939       0.14747056
Cu       7.20958722       3.59783665       0.01122159       0.00694687       0.05592520      -0.04099508
Cu       9.00460367       5.39685776       0.00352550       0.00805522       0.10398422      -0.01312479
Cu       7.19919423       5.40422111       1.81637846       0.02621753      -0.01930208      -0.02704403
Cu       9.00992741       3.60322024       1.80284080      -0.07627912      -0.06653395       0.06278983
Cu       0.02322948       7.19915880       0.00207178      -0.18635424      -0.00673846      -0.04461371
Cu       1.78769134       8.99968739      10.85395575       0.14549022      -0.01011001      -0.01681065
Cu       0.01156138       8.99316857       1.80762350      -0.03121248       0.05226014       0.02833205
Cu       1.80317193       7.18930042       1.80989950       0.03360136       0.07021158       0.02525555
Cu       3.61182165       7.20219060       0.00184542      -0.12895837      -0.05089155      -0.09047702
Cu       5.38097110       8.99604136      10.85224528       0.11540721       0.08100552       0.00146474
Cu       3.59731176       8.99062342       1.80301755      -0.01867372       0.11170944       0.05830376
Cu       5.40845208       7.21207912       1.79701227      -0.01531452      -0.08825126       0.05431198
Cu       7.19731192       7.19435832      10.84713308       0.06227138       0.09009771       0.06078832
Cu       9.01148015       9.00245032      10.85124245      -0.04902054      -0.04028159       0.04601184
Cu       7.19459338       9.01566079       1.80072950       0.08839243      -0.09743748       0.00325553
Cu       9.01524295       7.21873837       1.81855099      -0.09358024      -0.08503038      -0.09376572
Cu       0.00374951      10.79886956       3.60643300       0.01421134       0.01365325       0.10133995
Cu       1.79053183       1.80809491       3.60573849       0.01489926      -0.04492099       0.15218115
Cu      10.79413994       1.79045124       5.42899228       0.11765086       0.05563173      -0.01413820
Cu       1.80831431      10.80120126       5.42694862      -0.05034150       0.06886599       0.00205693
Cu       3.59786430       0.00016517       3.61936051       0.04510860       0.01256086      -0.04568139
Cu       5.40041013       1.81260243       3.62389904      -0.01373259      -0.05783282       0.00818289
Cu       3.60087418       1.80620136       5.43517669       0.01257481      -0.03002456      -0.03139136
Cu       5.40189125      10.79510125       5.42239879      -0.01999755       0.05580680       0.04161200
Cu       7.20029478       0.00518450       3.61911265      -0.03227752      -0.00919229       0.06641980
Cu       9.00730470       1.79091704       3.61999150      -0.05267634       0.07970619      -0.00047808
Cu       7.20323854       1.80674947       5.44917793      -0.01928411      -0.08066458      -0.13615714
Cu       8.99512856      10.80071936       5.42952687       0.05013706      -0.02954182      -0.01688770
Cu      10.79647326       3.59247315       3.62064702       0.05472068       0.05409109       0.02337655
Cu       1.79231476       5.40560673       3.62861291       0.04691826      -0.05807970      -0.06191367
Cu       0.00685769       5.39890049       5.43293511      -0.14733056       0.01516487      -0.01174912
Cu       1.81047284       3.62979209       5.44633651      -0.10043500      -0.24299799      -0.11907489
Cu       3.58036884       3.59456849       3.61973387       0.13684663       0.11408907       0.04431276
Cu       5.40186402       5.40814530       3.61803512      -0.05293646      -0.08868045      -0.05118360
Cu       3.60627613       5.40107826       5.44265946      -0.00075816       0.01296249      -0.10848043
Cu       5.41669032       3.60760699       5.43505499      -0.15424719      -0.05853465      -0.05529249
Cu       7.20359438       3.58872558       3.63777922       0.00705869       0.04462892      -0.16533177
Cu       9.00641804       5.38768047       3.60752898      -0.01422402       0.09066175       0.08697580