120
Lattice="15.9435 0.0 0.0 -6.3774 11.04598082 0.0 0.0 0.0 15.244416" Properties=species:S:1:pos:R:3:forces:R:3 energy=-180.36256454 stress="-0.002902242680134857 0.0009772182290478221 -1.1515584337254612e-08 0.0009772182290478221 6.994154610997056e-05 1.78195085543967e-08 -1.1515584337254612e-08 1.78195085543967e-08 -0.0048358127496151765" free_energy=-180.36202465 pbc="T T T"
Mg       0.00000000       0.00000000       0.00000000       0.00083505      -0.00111659      -0.00000930
Mg       0.00000003       1.84099684       2.54073605       0.00025208       0.00041610       0.00000110
Mg       3.18870000       0.00000000       0.00000000      -0.00271646       0.00044866      -0.00001056
Mg       3.18870003       1.84099684       2.54073605       0.00252269       0.00249428       0.00000384
Mg       6.37740000       0.00000000       0.00000000       0.00478823      -0.00824121      -0.00001373
Mg       6.37740003       1.84099684       2.54073605      -0.00190334      -0.00026673      -0.00000107
Mg       9.56610000       0.00000000       0.00000000      -0.00338330       0.00597587      -0.00000971
Mg       9.56610003       1.84099684       2.54073605      -0.00098337       0.00382146       0.00000252
Mg      12.75480000       0.00000000       0.00000000       0.00439481      -0.00259051      -0.00000954
Mg      12.75480003       1.84099684       2.54073605      -0.00158312       0.00032270       0.00000187
Mg      -1.59435000       2.76149521       0.00000000       0.00083499      -0.00111900      -0.00000626
Mg      -1.59434997       4.60249205       2.54073605       0.00025038       0.00041189       0.00000308
Mg       1.59435000       2.76149521       0.00000000      -0.00271404       0.00044439      -0.00001070
Mg       1.59435003       4.60249205       2.54073605       0.00252019       0.00248885       0.00000888
Mg       4.78305000       2.76149521       0.00000000       0.00478808      -0.00824657      -0.00001206
Mg       4.78305003       4.60249205       2.54073605      -0.00190387      -0.00027211       0.00000394
Mg       7.97175000       2.76149521       0.00000000      -0.00338143       0.00597005      -0.00000985
Mg       7.97175003       4.60249205       2.54073605      -0.00098622       0.00381943       0.00000327
Mg      11.16045000       2.76149521       0.00000000       0.00439210      -0.00259056      -0.00000642
Mg      11.16045003       4.60249205       2.54073605      -0.00158276       0.00032826       0.00000306
Mg      -3.18870000       5.52299041       0.00000000       0.00083386      -0.00111616      -0.00000837
Mg      -3.18869997       7.36398725       2.54073605       0.00024790       0.00041687       0.00000436
Mg       0.00000000       5.52299041       0.00000000      -0.00271289       0.00044226      -0.00000934
Mg       0.00000003       7.36398725       2.54073605       0.00251602       0.00249476       0.00000524
Mg       3.18870000       5.52299041       0.00000000       0.00479176      -0.00824550      -0.00000782
Mg       3.18870003       7.36398725       2.54073605      -0.00190160      -0.00026451       0.00000194
Mg       6.37740000       5.52299041       0.00000000      -0.00338144       0.00597530      -0.00001001
Mg       6.37740003       7.36398725       2.54073605      -0.00098140       0.00381437       0.00000187
Mg       9.56610000       5.52299041       0.00000000       0.00438650      -0.00258763      -0.00000540
Mg       9.56610003       7.36398725       2.54073605      -0.00158215       0.00032285       0.00001151
Mg      -4.78305000       8.28448562       0.00000000       0.00083516      -0.00111813      -0.00000019
Mg      -4.78304997      10.12548246       2.54073605       0.00025245       0.00041930       0.00000417
Mg      -1.59435000       8.28448562       0.00000000      -0.00271681       0.00045193      -0.00000840
Mg      -1.59434997      10.12548246       2.54073605       0.00251858       0.00249140       0.00000236
Mg       1.59435000       8.28448562       0.00000000       0.00478859      -0.00824223      -0.00000740
Mg       1.59435003      10.12548246       2.54073605      -0.00190111      -0.00026500       0.00000383
Mg       4.78305000       8.28448562       0.00000000      -0.00337814       0.00597668      -0.00000980
Mg       4.78305003      10.12548246       2.54073605      -0.00097692       0.00382133       0.00000068
Mg       7.97175000       8.28448562       0.00000000       0.00439136      -0.00258722      -0.00000706
Mg       7.97175003      10.12548246       2.54073605      -0.00157705       0.00032124       0.00000358
Mg       0.00000000       0.00000000       5.08147195       0.00083475      -0.00111904       0.00001026
Mg       0.00000003       1.84099684       7.62220800       0.00025055       0.00041416       0.00001024
Mg       3.18870000       0.00000000       5.08147195      -0.00272011       0.00044340       0.00001555
Mg       3.18870003       1.84099684       7.62220800       0.00251844       0.00248877       0.00000889
Mg       6.37740000       0.00000000       5.08147195       0.00478147      -0.00824205       0.00000877
Mg       6.37740003       1.84099684       7.62220800      -0.00190602      -0.00026680       0.00000812
Mg       9.56610000       0.00000000       5.08147195      -0.00338471       0.00597572       0.00001099
Mg       9.56610003       1.84099684       7.62220800      -0.00098351       0.00381942       0.00000877
Mg      12.75480000       0.00000000       5.08147195       0.00439380      -0.00258787       0.00001192
Mg      12.75480003       1.84099684       7.62220800      -0.00158093       0.00032630       0.00001048
Mg      -1.59435000       2.76149521       5.08147195       0.00083777      -0.00111682       0.00001170
Mg      -1.59434997       4.60249205       7.62220800       0.00025519       0.00041767       0.00000607
Mg       1.59435000       2.76149521       5.08147195      -0.00271752       0.00044424       0.00001336
Mg       1.59435003       4.60249205       7.62220800       0.00251889       0.00248986       0.00001006
Mg       4.78305000       2.76149521       5.08147195       0.00479023      -0.00824478       0.00001558
Mg       4.78305003       4.60249205       7.62220800      -0.00190855      -0.00027126       0.00001171
Mg       7.97175000       2.76149521       5.08147195      -0.00337791       0.00597965       0.00001244
Mg       7.97175003       4.60249205       7.62220800      -0.00098051       0.00382240       0.00000849
Mg      11.16045000       2.76149521       5.08147195       0.00439188      -0.00258281       0.00001103
Mg      11.16045003       4.60249205       7.62220800      -0.00158070       0.00032793       0.00000786
Mg      -3.18870000       5.52299041       5.08147195       0.00083279      -0.00111313       0.00001363
Mg      -3.18869997       7.36398725       7.62220800       0.00025068       0.00041847       0.00000966
Mg       0.00000000       5.52299041       5.08147195      -0.00271689       0.00044466       0.00001514
Mg       0.00000003       7.36398725       7.62220800       0.00251725       0.00249090       0.00001318
Mg       3.18870000       5.52299041       5.08147195       0.00479207      -0.00824998       0.00001446
Mg       3.18870003       7.36398725       7.62220800      -0.00190373      -0.00027299       0.00001011
Mg       6.37740000       5.52299041       5.08147195      -0.00338051       0.00597521       0.00001431
Mg       6.37740003       7.36398725       7.62220800      -0.00097777       0.00381770       0.00001002
Mg       9.56610000       5.52299041       5.08147195       0.00439432      -0.00258344       0.00001319
Mg       9.56610003       7.36398725       7.62220800      -0.00157883       0.00032148       0.00001023
Mg      -4.78305000       8.28448562       5.08147195       0.00083313      -0.00111761       0.00001297
Mg      -4.78304997      10.12548246       7.62220800       0.00024865       0.00041399       0.00000966
Mg      -1.59435000       8.28448562       5.08147195      -0.00272633       0.00044420       0.00001310
Mg      -1.59434997      10.12548246       7.62220800       0.00251544       0.00248700       0.00001068
Mg       1.59435000       8.28448562       5.08147195       0.00478441      -0.00824721       0.00001323
Mg       1.59435003      10.12548246       7.62220800      -0.00190653      -0.00026736       0.00000894
Mg       4.78305000       8.28448562       5.08147195      -0.00337442       0.00597207       0.00001016
Mg       4.78305003      10.12548246       7.62220800      -0.00098016       0.00381432       0.00000979
Mg       7.97175000       8.28448562       5.08147195       0.00439754      -0.00258976       0.00000705
Mg       7.97175003      10.12548246       7.62220800      -0.00157925       0.00032079       0.00000778
Mg       0.00000000       0.00000000      10.16294405       0.00083876      -0.00111855      -0.00000032
Mg       0.00000003       1.84099684      12.70367995       0.00025183       0.00041039      -0.00001004
Mg       3.18870000       0.00000000      10.16294405      -0.00271200       0.00044797      -0.00000176
Mg       3.18870003       1.84099684      12.70367995       0.00251895       0.00248838      -0.00001406
Mg       6.37740000       0.00000000      10.16294405       0.00478835      -0.00824545      -0.00000165
Mg       6.37740003       1.84099684      12.70367995      -0.00190701      -0.00027034      -0.00001014
Mg       9.56610000       0.00000000      10.16294405      -0.00337907       0.00597491      -0.00000191
Mg       9.56610003       1.84099684      12.70367995      -0.00098163       0.00381538      -0.00001320
Mg      12.75480000       0.00000000      10.16294405       0.00439356      -0.00258706       0.00000071
Mg      12.75480003       1.84099684      12.70367995      -0.00158126       0.00031693      -0.00001155
Mg      -1.59435000       2.76149521      10.16294405       0.00083912      -0.00111858      -0.00000425
Mg      -1.59434997       4.60249205      12.70367995       0.00025287       0.00041397      -0.00001179
Mg       1.59435000       2.76149521      10.16294405      -0.00271248       0.00044104      -0.00000294
Mg       1.59435003       4.60249205      12.70367995       0.00252050       0.00248849      -0.00001675
Mg       4.78305000       2.76149521      10.16294405       0.00478666      -0.00824494      -0.00000207
Mg       4.78305003       4.60249205      12.70367995      -0.00190819      -0.00026919      -0.00001216
Mg       7.97175000       2.76149521      10.16294405      -0.00338939       0.00598006      -0.00000654
Mg       7.97175003       4.60249205      12.70367995      -0.00098454       0.00381778      -0.00001544
Mg      11.16045000       2.76149521      10.16294405       0.00439120      -0.00258240      -0.00000437
Mg      11.16045003       4.60249205      12.70367995      -0.00158509       0.00032743      -0.00001008
Mg      -3.18870000       5.52299041      10.16294405       0.00083507      -0.00111234      -0.00000776
Mg      -3.18869997       7.36398725      12.70367995       0.00024967       0.00042067      -0.00001497
Mg       0.00000000       5.52299041      10.16294405      -0.00271300       0.00044724      -0.00000489
Mg       0.00000003       7.36398725      12.70367995       0.00252140       0.00249171      -0.00001348
Mg       3.18870000       5.52299041      10.16294405       0.00478833      -0.00824590      -0.00000102
Mg       3.18870003       7.36398725      12.70367995      -0.00190290      -0.00026922      -0.00001341
Mg       6.37740000       5.52299041      10.16294405      -0.00338439       0.00597515      -0.00000343
Mg       6.37740003       7.36398725      12.70367995      -0.00098320       0.00381682      -0.00001428
Mg       9.56610000       5.52299041      10.16294405       0.00439154      -0.00258134      -0.00000628
Mg       9.56610003       7.36398725      12.70367995      -0.00158199       0.00032664      -0.00001332
Mg      -4.78305000       8.28448562      10.16294405       0.00083256      -0.00111323      -0.00000513
Mg      -4.78304997      10.12548246      12.70367995       0.00025661       0.00041436      -0.00001273
Mg      -1.59435000       8.28448562      10.16294405      -0.00271969       0.00044584      -0.00000696
Mg      -1.59434997      10.12548246      12.70367995       0.00251957       0.00249397      -0.00001193
Mg       1.59435000       8.28448562      10.16294405       0.00479043      -0.00824729      -0.00000311
Mg       1.59435003      10.12548246      12.70367995      -0.00190158      -0.00026904      -0.00001093
Mg       4.78305000       8.28448562      10.16294405      -0.00338044       0.00597626      -0.00000513
Mg       4.78305003      10.12548246      12.70367995      -0.00097898       0.00381552      -0.00001001
Mg       7.97175000       8.28448562      10.16294405       0.00439467      -0.00258439      -0.00000127
Mg       7.97175003      10.12548246      12.70367995      -0.00157911       0.00032433      -0.00000906
120
Lattice="15.9435 0.0 0.0 -6.3774 11.04598082 0.0 0.0 0.0 15.244416" Properties=species:S:1:pos:R:3:forces:R:3 energy=-180.34472058 stress="-0.0029238590734527842 0.0009884991326419435 -1.2462858177289914e-06 0.0009884991326419435 5.290667639231601e-05 2.736527261152256e-06 -1.2462858177289914e-06 2.736527261152256e-06 -0.0048261475355564" free_energy=-180.34418413 pbc="T T T"
Mg       9.55893808      11.03609345      15.24193711       0.03456358       0.02805413       0.01698979
Mg       0.00188857       1.84155875       2.53773260      -0.01024329      -0.00184311       0.00618582
Mg       3.19188829       0.00249573       0.00854465      -0.01168494      -0.01219145      -0.02785047
Mg       3.18116191       1.84734088       2.52668192       0.02249601      -0.00899795       0.05743721
Mg       0.00445532      11.03708041      15.24385135       0.00159611       0.02342135      -0.01147180
Mg       6.36755626       1.85265190       2.53813505       0.02594061      -0.02839173       0.00523056
Mg       3.19160334      11.03139924      15.23654012       0.00081675       0.03450439       0.02494515
Mg       9.57200445       1.83834680       2.54572921      -0.01883456       0.01718673      -0.01938630
Mg      12.76038561       0.00278502      15.24150340      -0.01634058      -0.01406561       0.00339631
Mg      12.75789119       1.83658751       2.54255547       0.00110818       0.01417221       0.00102468
Mg      -1.58991624       2.77052883      15.24224337      -0.01208813      -0.02657442       0.01801802
Mg      -1.58948140       4.59972933       2.55101231      -0.00285550       0.00269100      -0.02053069
Mg       1.59383321       2.76678689      15.24439633      -0.00857189      -0.01428044      -0.01548423
Mg       1.60168159       4.60487809       2.54540679      -0.02756092      -0.00071835      -0.02310345
Mg       4.77505567       2.75856515      15.24292708       0.03911040       0.01671853      -0.00815360
Mg       4.78808438       4.60334502       2.55020680      -0.02296697       0.00142767      -0.03537087
Mg       7.98185544       2.75854571      15.24011204      -0.03164665      -0.00207978       0.03018721
Mg       7.95364954       4.60597981       2.53565509       0.06583219      -0.01735232       0.02629659
Mg      11.16525094       2.76397635       0.00731625      -0.00247296      -0.01154307      -0.01641525
Mg      11.17281670       4.60332116       2.54103134      -0.05327813      -0.00715292       0.01048433
Mg      -3.17887322       5.52201450      15.24432392      -0.02553160      -0.00000923      -0.01236060
Mg      -3.19485932       7.35110222       2.53975248       0.02259093       0.04698147       0.00384873
Mg      -0.00580704       5.52761636       0.00403977       0.01518905      -0.01217142      -0.00818790
Mg      -0.00887571       7.36650408       2.54397442       0.02649697       0.00343387      -0.00807349
Mg       3.18094808       5.52434222       0.00288272       0.02490737      -0.01873526      -0.00363466
Mg       3.18584965       7.36170681       2.54776281      -0.00248516       0.01923637      -0.03179720
Mg       6.37972003       5.53413702       0.00189305      -0.02655588      -0.04007514      -0.01154459
Mg       6.37792735       7.35987251       2.53650542      -0.01487092       0.02581111       0.00898964
Mg       9.56484126       5.51663566       0.00178512       0.01684789       0.01115557       0.01045597
Mg       9.55801738       7.36355082       2.54225943       0.01479573      -0.00287204      -0.01251159
Mg      -4.77608591       8.27971519       0.01088482      -0.01326497       0.00992846      -0.03567925
Mg      -4.77806255      10.13128193       2.54585924      -0.01320938      -0.01498078      -0.01903536
Mg      -1.59280673       8.28834409       0.00298242      -0.00967397      -0.00628559      -0.00642323
Mg      -1.58365580      10.12990184       2.54526928      -0.04014811      -0.00710375      -0.00765456
Mg       1.59235470       8.27607543      15.23380436      -0.00007820       0.01962542       0.04573977
Mg       1.59274296      10.13486624       2.54032750       0.00711181      -0.01917748      -0.01275071
Mg       4.77292827       8.28108014      15.24007927       0.01404344       0.01556539       0.02374393
Mg       4.78413116      10.12181132       2.54274084       0.00068363       0.00000712      -0.01074651
Mg       7.96959115       8.28594026      15.23890713       0.00887216      -0.00511915       0.02217204
Mg       7.97080343      10.12670558       2.54711995       0.00518066      -0.00443144      -0.02666422
Mg      15.93667956       0.00133402       5.08295035       0.01890684      -0.00363459       0.00072088
Mg       0.00234596       1.84856389       7.62032836      -0.00290039      -0.02309723       0.01165512
Mg      -3.19389621      11.04104669       5.08327643       0.01004063       0.02584034      -0.01068528
Mg       3.19915316       1.84730807       7.61944282      -0.03831069      -0.01896654       0.00181817
Mg      -0.00400651      11.03994320       5.08355921       0.01759931       0.02612650      -0.00337182
Mg       6.37999790       1.84949639       7.62043660       0.00359524      -0.01419838       0.00803026
Mg       3.19075273      11.04502148       5.07808403      -0.00688770       0.00515502       0.01056534
Mg       9.56882570       1.83735642       7.62633969      -0.01108237       0.01471155      -0.00461201
Mg       6.37803748      11.04578464       5.08327369      -0.00488549      -0.00153138       0.00367729
Mg      12.74757265       1.83373665       7.62538356       0.02686382       0.01942013      -0.00088836
Mg      -1.59563527       2.76594022       5.08487557      -0.00720273      -0.01621662      -0.00495541
Mg      -1.60133724       4.61156665       7.61179469       0.01682581      -0.04363217       0.02517130
Mg       1.59004245       2.76038829       5.07940420       0.01772853      -0.00961517      -0.00686529
Mg       1.59270674       4.59681883       7.61240874       0.02084395       0.02223128       0.02064016
Mg       4.78621922       2.76060578       5.08760173      -0.01040710      -0.00946455      -0.02982853
Mg       4.78887499       4.60030881       7.61916003      -0.01848225       0.01411562       0.01081259
Mg       7.97345729       2.76150117       5.08546157      -0.00910924       0.00814825      -0.01628073
Mg       7.97747104       4.60895505       7.61948779      -0.01330457      -0.02430197       0.01088240
Mg      11.15993416       2.76106231       5.08701421       0.00699509       0.00542570      -0.01370075
Mg      11.16563919       4.58848872       7.62509880      -0.01568626       0.03472665      -0.00108591
Mg      12.75000050       5.53079638       5.08229042       0.00543584      -0.02531970      -0.00727473
Mg      -3.18252323       7.35662499       7.61248938      -0.03080468       0.02864394       0.03822467
Mg       0.00338356       5.52149445       5.08157805      -0.00599557       0.01306597      -0.00436256
Mg      -0.00195008       7.35074930       7.62648558       0.02910382       0.04653561      -0.00615413
Mg       3.18923226       5.52433183       5.06816540       0.00314442      -0.01510445       0.05154845
Mg       3.19224430       7.36524285       7.61658220      -0.01899167      -0.00843799       0.02430074
Mg       6.37384670       5.53249294       5.08775204       0.01091342      -0.02465533      -0.01809762
Mg       6.37739617       7.36074393       7.62043126       0.00902556       0.02406611       0.01166536
Mg       9.56312469       5.52813552       5.08862051       0.01033492      -0.02363385      -0.03642814
Mg       9.56681599       7.35326116       7.62445244       0.00656010       0.04295092      -0.00742889
Mg      -4.77889324       8.28216077       5.06870033      -0.01949654       0.00720481       0.04043850
Mg      -4.77755702      10.11636135       7.61828592      -0.02233120       0.01980571       0.01331004
Mg      -1.59155415       8.28481644       5.08516399      -0.00734952      -0.00442348      -0.00908836
Mg      -1.59773248      10.12897674       7.62287677       0.01560071      -0.00828403       0.00368581
Mg       1.59729480       8.28801503       5.07581505      -0.00786325      -0.01514343       0.01961012
Mg       1.59220907      10.13346273       7.61766943      -0.00810423      -0.03095104       0.00945057
Mg       4.78598440       8.27923933       5.08628888      -0.00631194       0.02597021      -0.01566378
Mg       4.77953554      10.12532571       7.62338212       0.01407745      -0.00795186      -0.00309350
Mg       7.96941536       8.28628534       5.07258339       0.01300358      -0.00114950       0.04121103
Mg       7.97454863      10.13538043       7.62594425      -0.00166698      -0.03193868      -0.01800019
Mg       9.56413892      11.04219238      10.16576030       0.01743180       0.02522085      -0.01250787
Mg      -0.00521643       1.85106702      12.71001096       0.01418882      -0.03161657      -0.01912458
Mg       3.18658312       0.00664095      10.16000660      -0.00789723      -0.02554651      -0.00815779
Mg       3.19305755       1.83853635      12.69778448      -0.01333688       0.01349010       0.02277303
Mg       6.37566573       0.00752993      10.16002200       0.00557366      -0.02157757       0.00166568
Mg       6.38494249       1.84832463      12.70482709      -0.02504572      -0.02314884       0.00377712
Mg       9.56553248       0.00046161      10.15551407       0.00438552       0.00527408       0.01659142
Mg       9.56785025       1.84067496      12.71275983       0.00319262      -0.00017386      -0.02705499
Mg       6.38049811      11.04057967      10.16374621      -0.00583226       0.01837508       0.00895662
Mg      12.74746468       1.84225398      12.70674728       0.02385727      -0.00632562      -0.00230634
Mg      -1.59231950       2.75991464      10.16323461      -0.00595448      -0.00683719      -0.01168170
Mg      -1.60011377       4.59912203      12.70138856       0.00426573       0.02275854       0.00306492
Mg       1.59300006       2.76620135      10.16226247       0.00044606      -0.01827517      -0.00402997
Mg       1.58817091       4.60371495      12.69861728       0.01458370       0.00476779       0.01789790
Mg       4.77639480       2.75337210      10.16183121       0.02973629       0.02866475       0.00497853
Mg       4.78334116       4.60567439      12.70220124      -0.01118981      -0.00676455       0.01663715
Mg       7.97157590       2.76050107      10.16678488       0.00069817       0.00668847      -0.01015859
Mg       7.96858703       4.59890067      12.70801592       0.00281692       0.02147305      -0.00898626
Mg      11.16655100       2.75943281      10.17171020      -0.01521560      -0.00780884      -0.01756276
Mg      11.15305088       4.60570963      12.69331984       0.01892876      -0.00390795       0.03478028
Mg      -3.18020938       5.51788429      10.15767711      -0.02987543       0.01942365       0.00787964
Mg      -3.18768972       7.36714187      12.69964475      -0.00159533      -0.01251768       0.01275951
Mg      -0.00451970       5.51368726      10.16208137       0.01672167       0.02398035      -0.00228569
Mg       0.00365062       7.36882097      12.70139603      -0.02733544      -0.01475162       0.00569066
Mg       3.19577429       5.52369459      10.16485509      -0.01859607      -0.00565653      -0.02104695
Mg       3.17818839       7.36403298      12.70820846       0.02511630      -0.00895383      -0.02127824
Mg       6.37752844       5.52106410      10.16465249       0.00195268       0.00522135       0.00060935
Mg       6.36821638       7.36866224      12.71220005       0.02769670      -0.00834562      -0.02879623
Mg       9.55741229       5.51208239      10.15868888       0.02139248       0.02959912       0.01511797
Mg       9.56761906       7.35626953      12.71162824      -0.01179493       0.02138387      -0.02226454
Mg      11.15005799       8.28322229      10.16945128       0.02720694      -0.00924013      -0.02572416
Mg      -4.77708362      10.13226778      12.70121005      -0.01139064      -0.01671976       0.02465277
Mg      -1.59114679       8.28665007      10.16263428      -0.01670783      -0.00121162      -0.01089902
Mg      -1.59838916      10.12471763      12.69900205       0.02183111       0.01672015       0.01318825
Mg       1.59643468       8.28787938      10.17206646       0.00538557      -0.01869274      -0.04773705
Mg       1.59925001      10.12884640      12.69365995      -0.02304530       0.00632187       0.01922730
Mg       4.79447639       8.27983084      10.16921179      -0.04127245       0.00668629      -0.01966749
Mg       4.77969810      10.12557878      12.69491426       0.02013313       0.00129433       0.01912518
Mg       7.96446701       8.29152025      10.16067934       0.02328938      -0.03539043       0.01227368
Mg       7.98432132      10.12378911      12.70577286      -0.03648884       0.00645292      -0.01183079
120
Lattice="15.9435 0.0 0.0 -6.3774 11.04598082 0.0 0.0 0.0 15.244416" Properties=species:S:1:pos:R:3:forces:R:3 energy=-180.29350517 stress="-0.002987229845864444 0.0009770662420590978 -1.4827953230360856e-07 0.0009770662420590978 1.6169459511314325e-05 -1.8503328294228474e-06 -1.4827953230360856e-07 -1.8503328294228474e-06 -0.004891919116936349" free_energy=-180.29298036 pbc="T T T"
Mg       9.55178988      11.02621713      15.23946507       0.06549395       0.05135080       0.03522884
Mg       0.00377300       1.84211977       2.53473158      -0.01936417      -0.00489848       0.00991722
Mg       3.19507195       0.00498649       0.01707832      -0.01766534      -0.02511263      -0.05636735
Mg       3.17363260       1.85368127       2.51265050       0.04402459      -0.02098700       0.11430834
Mg       0.00891124      11.02818917      15.24328227      -0.01053281       0.05426157      -0.02352445
Mg       6.35772288       1.86429558       2.53553633       0.05290432      -0.05899783       0.00970793
Mg       3.19450691      11.01683136      15.22867431       0.00316499       0.05849116       0.04848580
Mg       9.57790147       1.83570350       2.55071489      -0.03701515       0.03460093      -0.03776043
Mg      12.76596482       0.00556430      15.23859218      -0.03476485      -0.02437529       0.01160634
Mg      12.76098283       1.83218369       2.54437550       0.00323383       0.02035479       0.00382503
Mg      -1.58548736       2.77955185      15.24007790      -0.01845803      -0.04645790       0.03411884
Mg      -1.58461404       4.59696762       2.56128049      -0.00415099       0.00489991      -0.04005157
Mg       1.59331294       2.77207273      15.24437072      -0.01358793      -0.02198058      -0.03135462
Mg       1.60900201       4.60726380       2.55006822      -0.05505053      -0.00161119      -0.03841075
Mg       4.76707694       2.75564150      15.24143511       0.07142869       0.04441439      -0.01760057
Mg       4.79310965       4.60419854       2.55966367      -0.04128827       0.00610619      -0.06826073
Mg       7.99194847       2.75559533      15.23581998      -0.05732817      -0.00886541       0.06063256
Mg       7.93557522       4.60946062       2.53058479       0.12441205      -0.03301873       0.04777249
Mg      11.17005073       2.76645286       0.01462610      -0.00392028      -0.01863560      -0.03118217
Mg      11.18516230       4.60414729       2.54133089      -0.09505807      -0.01534262       0.02052076
Mg      -3.16905675       5.52103847      15.24422697      -0.05463190       0.00574770      -0.02436925
Mg      -3.20100969       7.33823587       2.53877044       0.04663886       0.08379519       0.00450238
Mg      -0.01160795       5.53223722       0.00807619       0.03127485      -0.01728816      -0.02075251
Mg      -0.01774091       7.36902223       2.54720959       0.05069054      -0.00533993      -0.01382420
Mg       3.17320607       5.52568651       0.00576391       0.04337406      -0.02624435      -0.00820343
Mg       3.18299835       7.35943377       2.55477707       0.00097041       0.04059238      -0.06387415
Mg       6.38202939       5.54526761       0.00378138      -0.04731195      -0.08517579      -0.02513505
Mg       6.37844873       7.35576805       2.53227845      -0.03183732       0.04824601       0.01648984
Mg       9.56358935       5.51028510       0.00357436       0.03337853       0.02385990       0.01867564
Mg       9.54994053       7.36311318       2.54377777       0.02639349      -0.00679101      -0.02587515
Mg      -4.76912692       8.27494863       0.02175546      -0.02995915       0.02289676      -0.05917439
Mg      -4.77308040      10.13707532       2.55097481      -0.02622651      -0.03102976      -0.03247761
Mg      -1.59126720       8.29219991       0.00596224      -0.01884881      -0.01085748      -0.01382663
Mg      -1.57297745      10.13431825       2.54979947      -0.07868903      -0.01276997      -0.00659992