108
Lattice="10.8567 0.0 0.0 0.0 10.8567 0.0 0.0 0.0 10.8567" Properties=species:S:1:pos:R:3:forces:R:3 energy=-405.25882653 stress="-0.0003105442643093647 5.882622351144971e-08 1.3437969148026655e-08 5.882622351144971e-08 -0.0003105190735785327 -1.716415009617896e-09 1.3437969148026655e-08 -1.716415009617896e-09 -0.0003105744669720249" free_energy=-405.27218186 pbc="T T T"
Cu       0.00000000       0.00000000       0.00000000       0.00000500       0.00000525      -0.00000926
Cu       1.80945362       1.80945362       0.00000000      -0.00955915      -0.00955173      -0.00001781
Cu       0.00000000       1.80945362       1.80945362       0.00001536      -0.00953806      -0.00953788
Cu       1.80945362       0.00000000       1.80945362      -0.00954684      -0.00001941      -0.00952468
Cu       3.61889638       0.00000000       0.00000000       0.00180681      -0.00002789      -0.00001125
Cu       5.42835000       1.80945362       0.00000000       0.00002495      -0.00181743      -0.00002583
Cu       3.61889638       1.80945362       1.80945362      -0.00534314       0.00531014       0.00534807
Cu       5.42835000       0.00000000       1.80945362       0.00001284      -0.00003363      -0.00181478
Cu       7.23780362       0.00000000       0.00000000      -0.00180913      -0.00000210      -0.00000140
Cu       9.04724638       1.80945362       0.00000000       0.00953504      -0.00952167      -0.00000076
Cu       7.23780362       1.80945362       1.80945362       0.00532097       0.00533945       0.00531137
Cu       9.04724638       0.00000000       1.80945362       0.00953395      -0.00000753      -0.00953437
Cu       0.00000000       3.61889638       0.00000000      -0.00001131       0.00182868       0.00001979
Cu       1.80945362       5.42835000       0.00000000      -0.00182609       0.00001740       0.00002106
Cu       0.00000000       5.42835000       1.80945362      -0.00000697       0.00000315      -0.00180275
Cu       1.80945362       3.61889638       1.80945362       0.00529351      -0.00528923       0.00534556
Cu       3.61889638       3.61889638       0.00000000       0.00955621       0.00958056      -0.00002039
Cu       5.42835000       5.42835000       0.00000000       0.00001836       0.00000886       0.00000046
Cu       3.61889638       5.42835000       1.80945362       0.00954740       0.00001164      -0.00952551
Cu       5.42835000       3.61889638       1.80945362       0.00003340       0.00958296      -0.00952109
Cu       7.23780362       3.61889638       0.00000000      -0.00954033       0.00957095       0.00000042
Cu       9.04724638       5.42835000       0.00000000       0.00181444      -0.00000524       0.00001225
Cu       7.23780362       5.42835000       1.80945362      -0.00954388      -0.00001135      -0.00953506
Cu       9.04724638       3.61889638       1.80945362      -0.00532475      -0.00528976       0.00530643
Cu       0.00000000       7.23780362       0.00000000      -0.00000874      -0.00183371       0.00000506
Cu       1.80945362       9.04724638       0.00000000      -0.00951191       0.00953420       0.00001098
Cu       0.00000000       9.04724638       1.80945362       0.00001058       0.00953668      -0.00951422
Cu       1.80945362       7.23780362       1.80945362       0.00532731       0.00530738       0.00532517
Cu       3.61889638       7.23780362       0.00000000       0.00955054      -0.00954528       0.00001795
Cu       5.42835000       9.04724638       0.00000000      -0.00002444       0.00180982       0.00001831
Cu       3.61889638       9.04724638       1.80945362      -0.00533198      -0.00532422       0.00531946
Cu       5.42835000       7.23780362       1.80945362      -0.00000515      -0.00954981      -0.00954802
Cu       7.23780362       7.23780362       0.00000000      -0.00954001      -0.00956706       0.00000850
Cu       9.04724638       9.04724638       0.00000000       0.00953598       0.00952733      -0.00000246
Cu       7.23780362       9.04724638       1.80945362       0.00532335      -0.00532925       0.00532887
Cu       9.04724638       7.23780362       1.80945362      -0.00532218       0.00529604       0.00533920
Cu       0.00000000       0.00000000       3.61889638       0.00001853       0.00001012       0.00182653
Cu       1.80945362       1.80945362       3.61889638       0.00529988       0.00530603      -0.00529759
Cu       0.00000000       1.80945362       5.42835000       0.00000782      -0.00180816       0.00000234
Cu       1.80945362       0.00000000       5.42835000      -0.00180925       0.00001792      -0.00000475
Cu       3.61889638       0.00000000       3.61889638       0.00952982      -0.00002133       0.00955350
Cu       5.42835000       1.80945362       3.61889638       0.00002644      -0.00953539       0.00956774
Cu       3.61889638       1.80945362       5.42835000       0.00952410      -0.00955445      -0.00000289
Cu       5.42835000       0.00000000       5.42835000      -0.00000596       0.00000580       0.00001375
Cu       7.23780362       0.00000000       3.61889638      -0.00954291      -0.00001127       0.00955557
Cu       9.04724638       1.80945362       3.61889638      -0.00532581       0.00534275      -0.00529601
Cu       7.23780362       1.80945362       5.42835000      -0.00953251      -0.00951776       0.00001618
Cu       9.04724638       0.00000000       5.42835000       0.00181201      -0.00000096      -0.00000380
Cu       0.00000000       3.61889638       3.61889638      -0.00000063       0.00955288       0.00952706
Cu       1.80945362       5.42835000       3.61889638      -0.00954181       0.00001768       0.00951569
Cu       0.00000000       5.42835000       5.42835000      -0.00001515       0.00000331       0.00000862
Cu       1.80945362       3.61889638       5.42835000      -0.00953231       0.00952951       0.00000386
Cu       3.61889638       3.61889638       3.61889638      -0.00533541      -0.00529613      -0.00531479
Cu       5.42835000       5.42835000       3.61889638       0.00001463       0.00000740       0.00180768
Cu       3.61889638       5.42835000       5.42835000       0.00181017       0.00000401      -0.00000800
Cu       5.42835000       3.61889638       5.42835000       0.00001648       0.00181537       0.00000505
Cu       7.23780362       3.61889638       3.61889638       0.00533933      -0.00529950      -0.00531753
Cu       9.04724638       5.42835000       3.61889638       0.00952834      -0.00000605       0.00952718
Cu       7.23780362       5.42835000       5.42835000      -0.00179611       0.00000206       0.00001087
Cu       9.04724638       3.61889638       5.42835000       0.00952058       0.00954651       0.00002528
Cu       0.00000000       7.23780362       3.61889638       0.00000196      -0.00956205       0.00953462
Cu       1.80945362       9.04724638       3.61889638       0.00532954      -0.00532375      -0.00532952
Cu       0.00000000       9.04724638       5.42835000      -0.00000265       0.00180595      -0.00002019
Cu       1.80945362       7.23780362       5.42835000      -0.00954079      -0.00954823      -0.00000970
Cu       3.61889638       7.23780362       3.61889638      -0.00532202       0.00531851      -0.00532691
Cu       5.42835000       9.04724638       3.61889638      -0.00000565       0.00952599       0.00953099
Cu       3.61889638       9.04724638       5.42835000       0.00953856       0.00954482       0.00000473
Cu       5.42835000       7.23780362       5.42835000       0.00001810      -0.00182126       0.00000175
Cu       7.23780362       7.23780362       3.61889638       0.00531929       0.00531236      -0.00532194
Cu       9.04724638       9.04724638       3.61889638      -0.00532256      -0.00532992      -0.00531514
Cu       7.23780362       9.04724638       5.42835000      -0.00953610       0.00951325       0.00001166
Cu       9.04724638       7.23780362       5.42835000       0.00952390      -0.00954754      -0.00000904
Cu       0.00000000       0.00000000       7.23780362      -0.00000287      -0.00000009      -0.00181290
Cu       1.80945362       1.80945362       7.23780362       0.00532378       0.00530918       0.00531748
Cu       0.00000000       1.80945362       9.04724638      -0.00000630      -0.00952615       0.00953552
Cu       1.80945362       0.00000000       9.04724638      -0.00952079      -0.00000512       0.00952740
Cu       3.61889638       0.00000000       7.23780362       0.00953860      -0.00000668      -0.00954479
Cu       5.42835000       1.80945362       7.23780362       0.00000637      -0.00953149      -0.00954149
Cu       3.61889638       1.80945362       9.04724638      -0.00531868       0.00530621      -0.00533833
Cu       5.42835000       0.00000000       9.04724638      -0.00002069      -0.00001365       0.00180059
Cu       7.23780362       0.00000000       7.23780362      -0.00953814      -0.00000097      -0.00955459
Cu       9.04724638       1.80945362       7.23780362      -0.00533012       0.00534627       0.00529796
Cu       7.23780362       1.80945362       9.04724638       0.00532338       0.00533898      -0.00532213
Cu       9.04724638       0.00000000       9.04724638       0.00954126       0.00000646       0.00953792
Cu       0.00000000       3.61889638       7.23780362      -0.00001011       0.00954749      -0.00954807
Cu       1.80945362       5.42835000       7.23780362      -0.00954095      -0.00000883      -0.00953234
Cu       0.00000000       5.42835000       9.04724638      -0.00001698      -0.00001196       0.00179342
Cu       1.80945362       3.61889638       9.04724638       0.00529993      -0.00531035      -0.00534929
Cu       3.61889638       3.61889638       7.23780362      -0.00531653      -0.00531160       0.00533628
Cu       5.42835000       5.42835000       7.23780362       0.00003312      -0.00001275      -0.00180703
Cu       3.61889638       5.42835000       9.04724638       0.00955166      -0.00000050       0.00953200
Cu       5.42835000       3.61889638       9.04724638       0.00003000       0.00956523       0.00951678
Cu       7.23780362       3.61889638       7.23780362       0.00532790      -0.00530313       0.00532114
Cu       9.04724638       5.42835000       7.23780362       0.00950965      -0.00002108      -0.00954096
Cu       7.23780362       5.42835000       9.04724638      -0.00953468      -0.00001210       0.00952369
Cu       9.04724638       3.61889638       9.04724638      -0.00532424      -0.00530384      -0.00533103
Cu       0.00000000       7.23780362       7.23780362      -0.00000959      -0.00954499      -0.00953876
Cu       1.80945362       9.04724638       7.23780362       0.00533356      -0.00530014       0.00532076
Cu       0.00000000       9.04724638       9.04724638      -0.00001118       0.00953863       0.00953344
Cu       1.80945362       7.23780362       9.04724638       0.00533278       0.00531478      -0.00531354
Cu       3.61889638       7.23780362       7.23780362      -0.00531338       0.00532019       0.00531089
Cu       5.42835000       9.04724638       7.23780362      -0.00000601       0.00954607      -0.00954571
Cu       3.61889638       9.04724638       9.04724638      -0.00531005      -0.00530548      -0.00532749
Cu       5.42835000       7.23780362       9.04724638      -0.00000371      -0.00955138       0.00954323
Cu       7.23780362       7.23780362       7.23780362       0.00532624       0.00530565       0.00531199
Cu       9.04724638       9.04724638       7.23780362      -0.00532417      -0.00532313       0.00532123
Cu       7.23780362       9.04724638       9.04724638       0.00531942      -0.00532713      -0.00534270
Cu       9.04724638       7.23780362       9.04724638      -0.00532887       0.00529404      -0.00532998
108
Lattice="10.8567 0.0 0.0 0.0 10.8567 0.0 0.0 0.0 10.8567" Properties=species:S:1:pos:R:3:forces:R:3 energy=-405.23872837 stress="-0.0005451754873091705 4.349688985300665e-06 6.6018376892296246e-06 4.349688985300665e-06 -0.0005513966116662486 -9.9932116048513e-06 6.6018376892296246e-06 -9.9932116048513e-06 -0.0005545721541962973" free_energy=-405.25207227 pbc="T T T"
Cu       0.00047932       0.00878394       0.00437612      -0.01933224      -0.05910826      -0.00245887
Cu       1.80780221       1.80653143       0.00368216       0.01032841       0.03179941      -0.01188026
Cu      10.85094204       1.80777626       1.81205076       0.02527087       0.01533572       0.00268854
Cu       1.80946133       0.01362994       1.81164135      -0.01511113      -0.10596594      -0.01348309
Cu       3.61403128      10.85550131      10.85429405       0.06067054       0.00650710       0.01916555
Cu       5.42630156       1.82015615       0.00478433      -0.00104374      -0.10214603      -0.04811972
Cu       3.61868891       1.80704473       1.80403710       0.01020646       0.02084886       0.05196853
Cu       5.43064619      10.85506064       1.80734688      -0.03839777       0.01196530      -0.00634265
Cu       7.23181343       0.00251843      10.85436375       0.02366602      -0.01943835       0.02212048
Cu       9.04795999       1.80888136       0.00048301      -0.00973454      -0.00586704      -0.02506579
Cu       7.23711454       1.80542318       1.80794334       0.02196350       0.03022319       0.02773011
Cu       9.04897129       0.00215158       1.80874696      -0.00057300      -0.00941542      -0.00129726
Cu       0.00478585       3.61470819       0.00109740      -0.03587852       0.03631926      -0.03326727
Cu       1.81446051       5.42554029       0.00720168      -0.03553271       0.03853275      -0.07156699
Cu       0.00519851       5.42666808       1.81325650      -0.03332887       0.02796572      -0.02801023
Cu       1.80767627       3.62198120       1.80434489       0.02254841      -0.05342044       0.04560022
Cu       3.62144380       3.61731478       0.00123310      -0.01573868       0.03397565      -0.01613743
Cu       5.42615445       5.42547786      10.85319828       0.01009869       0.01811389       0.00508789
Cu       3.61432169       5.43235873       1.81523036       0.06676334      -0.01236379      -0.03807763
Cu       5.42786427       3.62315883       1.80657388       0.00203732      -0.00616669       0.04223647
Cu       7.23906647       3.61221962       0.00436211      -0.00604191       0.03723302      -0.06542825
Cu       9.04867795       5.42166466       0.00100229       0.01294571       0.02404959      -0.01329563
Cu       7.23773956       5.42635226       1.80580968      -0.00448630       0.01021488       0.00807752
Cu       9.05082193       3.61554492       1.80352358      -0.02354823       0.00285360       0.05148365
Cu      10.85542575       7.23627988      10.85608660      -0.00523118      -0.02166087       0.00736781
Cu       1.80353476       9.04923403      10.85055912       0.00980465       0.02632964       0.07245324
Cu       0.00047194       9.04261980       1.81065524       0.00904524       0.04969096      -0.02458962
Cu       1.81285481       7.24677505       1.81004672      -0.02533227      -0.03967927      -0.02363225
Cu       3.61777966       7.23743189       0.00409406       0.01700805      -0.00991861      -0.01776314
Cu       5.43083868       9.03845441       0.00659946      -0.03055003       0.06359370      -0.04671640
Cu       3.62433993       9.04854180       1.81030446      -0.03922479       0.00957295      -0.02334455
Cu       5.43217742       7.23797928       1.80707763       0.00033091      -0.03487990       0.02112593
Cu       7.24185990       7.24287196      10.85105072      -0.02636610      -0.06132157       0.04707871
Cu       9.04875166       9.05305244       0.00453300       0.00609310      -0.00480360      -0.01228028
Cu       7.23852668       9.04963616       1.80857965       0.01123700      -0.02796511       0.01627273
Cu       9.04341863       7.23676203       1.81614580       0.01938711      -0.00461175      -0.05314073
Cu       0.00031843       0.00261169       3.61680462       0.01258468      -0.02830904       0.02766268
Cu       1.81301179       1.81056187       3.62090335      -0.03624471       0.00380446      -0.02061351
Cu      10.85359129       1.80985543       5.43520525       0.03562258      -0.00315579      -0.05081357
Cu       1.80631625      10.85643879       5.42861816      -0.00951481      -0.02507599      -0.01349677
Cu       3.61391620      10.85261571       3.62199141       0.03038913       0.03447643      -0.01636173
Cu       5.43256989       1.80183308       3.61629001      -0.02832790       0.05130111       0.02226716
Cu       3.61236434       1.80946762       5.42411154       0.05788640      -0.02933665       0.01690244
Cu       5.43197440       0.00315691       5.42238457      -0.01145978      -0.01232462       0.02416160
Cu       7.24014682      10.85069494       3.61222222      -0.00776796       0.02562361       0.05639479
Cu       9.04391012       1.80926417       3.62763364       0.00051777      -0.00941381      -0.06076984
Cu       7.24178824       1.81047285       5.43470942      -0.05074782      -0.00323925      -0.03864685
Cu       9.04650465       0.00535322       5.42804601       0.00563028      -0.05605786       0.01158122
Cu      10.85539329       3.61217728       3.61753256       0.02581127       0.05211919       0.02830356
Cu       1.81422210       5.43202890       3.61185863      -0.06911001      -0.01157117       0.07237767
Cu      10.85121085       5.43359748       5.43447763       0.06418033      -0.03819032      -0.05000531
Cu       1.81176794       3.61938634       5.42348609      -0.03877498       0.03822214       0.02026276
Cu       3.61637426       3.61901450       3.61577128       0.04204592      -0.01544454       0.00121353
Cu       5.43256045       5.42647179       3.62136454      -0.01693300       0.00724667      -0.01876625
Cu       3.61805184       5.43415855       5.42208351      -0.00958120      -0.03169354       0.01962623
Cu       5.42278714       3.62056527       5.43527549       0.04789921      -0.03160945      -0.08365915
Cu       7.24145093       3.61535742       3.62245662      -0.02691431       0.01704898      -0.02476154
Cu       9.05226120       5.42984345       3.61542289      -0.01506721      -0.02633951       0.02000496
Cu       7.23911337       5.43201327       5.42459402       0.00667274      -0.03806802       0.02930903
Cu       9.05289914       3.61390968       5.42353592      -0.02432167       0.05790113       0.04203774
Cu      10.85591788       7.24015475       3.62138561       0.01753474      -0.03756241      -0.01263187
Cu       1.81758550       9.04159091       3.61122569      -0.05878207       0.06113849       0.04301851
Cu      10.85012225       9.03757990       5.42391341       0.04633646       0.10548228       0.02660896
Cu       1.80518574       7.24411245       5.42877439       0.02093569      -0.04676295       0.00053261
Cu       3.62071705       7.24070692       3.62256182       0.01262678      -0.00113689      -0.02655500
Cu       5.42436255       9.05096024       3.62047234       0.03015137      -0.01461875       0.00652548
Cu       3.61746818       9.05059068       5.43129966       0.02278869      -0.01128496      -0.00107448
Cu       5.42532706       7.23837012       5.42827476       0.03091658       0.01616816       0.00922244
Cu       7.23890275       7.24067565       3.62362437      -0.01475500       0.00397795      -0.03607794
Cu       9.05226348       9.04727124       3.61826040      -0.04472595       0.01460675      -0.00025107
Cu       7.23680459       9.04833216       5.43341552      -0.01583759       0.01520935      -0.02450699
Cu       9.04409360       7.24001296       5.42743337       0.00212824      -0.02404532       0.01174171
Cu       0.00089253       0.00439924       7.23381118      -0.02016187      -0.06198841       0.02325365
Cu       1.80765879       1.80734492       7.23469155       0.03371504       0.02376700       0.03168627
Cu       0.00104713       1.80097041       9.05248192      -0.00358644       0.04107498      -0.03443857
Cu       1.80766443       0.00829083       9.05427262      -0.00131305      -0.04809730      -0.06153233
Cu       3.62627318      10.85118013       7.23626642      -0.04514154       0.05014005      -0.00114008
Cu       5.42935348       1.80723614       7.23618141      -0.00927513      -0.01884637      -0.01103580
Cu       3.61812186       1.80903683       9.04475303       0.00420497      -0.01021071       0.00709865
Cu       5.43075986      10.84823156       9.04482827      -0.04203030       0.05729738       0.04999558
Cu       7.23619856       0.00170960       7.23467808      -0.00305278      -0.02415105      -0.00362513
Cu       9.04589863       1.81305793       7.24038936       0.01052156      -0.02396203      -0.00735277
Cu       7.23494798       1.79901382       9.04724084       0.00396938       0.07462189      -0.00486355
Cu       9.04068926       0.00191165       9.04404213       0.04136294      -0.01923069       0.02675389
Cu       0.00254644       3.61838796       7.23876498       0.02531039       0.00085292      -0.02245283
Cu       1.81796994       5.42566981       7.24177001      -0.04837029       0.01445516      -0.05155756
Cu      10.85491462       5.42988905       9.03468626       0.02617718       0.00658488       0.10770922
Cu       1.80888364       3.61968968       9.05197187       0.02831930      -0.01814227      -0.03363016
Cu       3.62462264       3.61443080       7.23058000      -0.06234594       0.00230557       0.03402458
Cu       5.42662444       5.42422087       7.23140001       0.03120028       0.03374423       0.03442172
Cu       3.62245369       5.43304769       9.03890225      -0.01436130      -0.05137088       0.06735638
Cu       5.42300351       3.61227868       9.04425579       0.04055261       0.04378297       0.02188568
Cu       7.23684562       3.62153109       7.24157708       0.00856209      -0.01532547      -0.02121859
Cu       9.04914989       5.42557220       7.23382540      -0.02846904       0.02684572       0.00397754
Cu       7.23728662       5.42597130       9.04932403      -0.01321676      -0.01380001       0.00361550
Cu       9.05446250       3.61450224       9.03637774      -0.04123308       0.01381272       0.08494899
Cu       0.00198526       7.23904649       7.23513385      -0.00737724       0.00805535       0.03909630
Cu       1.81209397       9.04989129       7.23679351      -0.02928607      -0.00607949       0.03444761
Cu      10.85105017       9.05398448       9.05236944       0.01302032      -0.01672354      -0.03408448
Cu       1.81220264       7.24284688       9.05254488      -0.02844227      -0.03202775      -0.02993279
Cu       3.62078610       7.23134063       7.23776953      -0.02904803       0.06418103      -0.00388595
Cu       5.42475882       9.04728080       7.24484527       0.01659161      -0.00070754      -0.05789180
Cu       3.61355032       9.05083875       9.05272098       0.01654313      -0.02582787      -0.02176144
Cu       5.42505054       7.23769907       9.04455891       0.01457135      -0.01379549       0.02734676
Cu       7.23614765       7.24005193       7.24025484       0.00273152      -0.03167998      -0.00669839
Cu       9.04517373       9.04482306       7.23786431       0.01635001       0.02203530       0.01459438
Cu       7.23412439       9.04815335       9.05157028       0.03339521      -0.00775020      -0.03019975
Cu       9.04094819       7.23757378       9.05446554       0.03998136       0.00121676      -0.04918942
108
Lattice="10.8567 0.0 0.0 0.0 10.8567 0.0 0.0 0.0 10.8567" Properties=species:S:1:pos:R:3:forces:R:3 energy=-405.17946378 stress="-0.0007670283126378272 -3.2892004112309665e-06 3.8690572060056366e-05 -3.2892004112309665e-06 -0.0007463790224344285 -3.783587852488529e-05 3.8690572060056366e-05 -3.783587852488529e-05 -0.0008098424562905718" free_energy=-405.19277184 pbc="T T T"
Cu       0.00095572       0.01755887       0.00875191      -0.03733407      -0.12082301      -0.00583306
Cu       1.80615253       1.80361413       0.00736247       0.03519667       0.08172454      -0.03137097
Cu      10.84518799       1.80610129       1.81464833       0.05566096       0.04559973       0.00920184
Cu       1.80946686       0.02724369       1.81382691      -0.01662943      -0.21046126      -0.01517038
Cu       3.60917551      10.85430360      10.85189102       0.12491709       0.00935946       0.04153176
Cu       5.42425301       1.83084327       0.00956128      -0.00161517      -0.19056346      -0.08665606
Cu       3.61848307       1.80463900       1.79862840       0.02502706       0.03656796       0.09935731
Cu       5.43293652      10.85342301       1.80523916      -0.07345513       0.02107809      -0.01007407
Cu       7.22582683       0.00503403      10.85203097       0.04188972      -0.03407087       0.05321610
Cu       9.04867219       1.80830835       0.00096223      -0.02577105      -0.00280334      -0.04848231
Cu       7.23642873       1.80139740       1.80643730       0.03685669       0.04921427       0.04793804
Cu       9.05069621       0.00430186       1.80804019      -0.01411811      -0.01981130       0.00828897
Cu       0.00956627       3.61052543       0.00218969      -0.06311022       0.07863065      -0.06208948
Cu       1.81946208       5.42273643       0.01439251      -0.07359033       0.07391180      -0.13616396
Cu       0.01039203       5.42499050       1.81705505      -0.05918334       0.05315198      -0.06047202
Cu       1.80590239       3.62505799       1.79924300       0.03672254      -0.09812985       0.08372536
Cu       3.62398893       3.61573838       0.00246382      -0.04591290       0.06050833      -0.03537512
Cu       5.42396042       5.42260854      10.84969732       0.02078518       0.04071155       0.01768855
Cu       3.60975721       5.43636561       1.82100135       0.12067285      -0.01882558      -0.05738619
Cu       5.42737876       3.62742041       1.80370044       0.00226034      -0.01734274       0.09649237
Cu       7.24032834       3.60554850       0.00871435      -0.00081895       0.06005049      -0.12552879
Cu       9.05011146       5.41498301       0.00200252       0.02377418       0.03988739      -0.02829817
Cu       7.23767486       5.42435625       1.80216693       0.00227121       0.02219056       0.03290704
Cu       9.05439378       3.61219378       1.79760136      -0.04283628       0.01336940       0.10616289
Cu      10.85415074       7.23475278      10.85547428      -0.00330873      -0.03780345       0.01666068
Cu       1.79761743       9.05122580      10.84442921       0.02750819       0.03936753       0.13520827
Cu       0.00094529       9.03800082       1.81185317       0.01676765       0.09597444      -0.03783767
Cu       1.81625208       7.25574052       1.81063624      -0.05149545      -0.08718994      -0.04879686
Cu       3.61666555       7.23705863       0.00818541       0.02344156      -0.01000193      -0.04006958
Cu       5.43332280       9.02967210       0.01319176      -0.05765823       0.11862123      -0.08994402
Cu       3.62977762       9.04983874       1.81115172      -0.06744539       0.02316350      -0.04763707
Cu       5.43600484       7.23814973       1.80470490      -0.00485192      -0.06155372       0.05670872
Cu       7.24591227       7.24793097      10.84540860      -0.03951546      -0.10838840       0.08673269
Cu       9.05025792       9.05885773       0.00906415       0.00253989      -0.01922891      -0.02497283
Cu       7.23925136       9.05202170       1.80770830       0.01995273      -0.04719504       0.02475067
Cu       9.03959371       7.23571978       1.82283005       0.04202512      -0.00911592      -0.11222646
Cu       0.00063870       0.00521903       3.61471709       0.02153622      -0.05389365       0.05525863
Cu       1.81656454       1.81167077       3.62290717      -0.06592167       0.01023787      -0.03388914
Cu      10.85048812       1.81025680       5.44205278       0.07400486      -0.00227091      -0.09456564
Cu       1.80317758      10.85617388       5.42888415      -0.01087975      -0.05252784      -0.02360316
Cu       3.60894068      10.84853685       3.62508405       0.05740345       0.06988481      -0.04555191
Cu       5.43678555       1.79422047       3.61368712      -0.05328330       0.11306447       0.03435660
Cu       3.60584120       1.80947707       5.41987559       0.10982163      -0.05016052       0.03431682
Cu       5.43559706       0.00631187       5.41642283      -0.03100004      -0.03230916       0.05900369
Cu       7.24248894      10.84469368       3.60555654      -0.00051961       0.04664889       0.09670451
Cu       9.04057396       1.80907320       3.63636166       0.00793418      -0.02414021      -0.12730345
Cu       7.24576527       1.81149153       5.44106309      -0.08629047       0.00288195      -0.07178443
Cu       9.04576379       0.01069798       5.42774376       0.01120093      -0.10492987       0.01468400
Cu      10.85409059       3.60546621       3.61617320       0.04838440       0.09709622       0.04139501
Cu       1.81898016       5.43570617       3.60483174      -0.12529292      -0.01680781       0.12789770
Cu      10.84573148       5.43883931       5.44059766       0.12496113      -0.07780884      -0.09664294
Cu       1.81407629       3.61988217       5.41862522      -0.06876414       0.06939898       0.04232458
Cu       3.61385844       3.61913023       3.61264640       0.08084513      -0.02219093      -0.00083597
Cu       5.43676829       5.42459478       3.62382988      -0.02857816       0.01517825      -0.04555657
Cu       3.61720588       5.43996222       5.41582007      -0.02403243      -0.06591780       0.03795417
Cu       5.41723154       3.62222939       5.44218838       0.08827806      -0.06552023      -0.15696383
Cu       7.24509422       3.61182096       3.62601317      -0.05189614       0.03238459      -0.04594313
Cu       9.05727385       5.43133288       3.61195244      -0.04793302      -0.05412070       0.03942149