120
Lattice="15.9435 0.0 0.0 -6.3774 11.04598082 0.0 0.0 0.0 15.167424" Properties=species:S:1:pos:R:3:forces:R:3 energy=-180.23880689 stress="-0.0036245975722079393 0.0012755554808804761 -1.0117486293056762e-08 0.0012755554808804761 -0.000786379200422296 1.723904820568956e-08 -1.0117486293056762e-08 1.723904820568956e-08 -0.006984508720650533" free_energy=-180.2351722 pbc="T T T"
Mg       0.00000000       0.00000000       0.00000000       0.00109198      -0.00103405       0.00000195
Mg       0.00000003       1.84099684       2.52790405      -0.00189001       0.00185366       0.00000424
Mg       3.18870000       0.00000000       0.00000000      -0.00277387      -0.00207263       0.00000161
Mg       3.18870003       1.84099684       2.52790405       0.00268497       0.00314168       0.00000248
Mg       6.37740000       0.00000000       0.00000000       0.00699416      -0.00760765       0.00000135
Mg       6.37740003       1.84099684       2.52790405      -0.00233591      -0.00155207       0.00000204
Mg       9.56610000       0.00000000       0.00000000      -0.00486798       0.00551732       0.00000232
Mg       9.56610003       1.84099684       2.52790405      -0.00195521       0.00456835       0.00000154
Mg      12.75480000       0.00000000       0.00000000       0.00498820      -0.00006029       0.00000242
Mg      12.75480003       1.84099684       2.52790405      -0.00294122       0.00131104       0.00000393
Mg      -1.59435000       2.76149521       0.00000000       0.00109163      -0.00103332       0.00000135
Mg      -1.59434997       4.60249205       2.52790405      -0.00189091       0.00185487       0.00000184
Mg       1.59435000       2.76149521       0.00000000      -0.00277278      -0.00207216       0.00000043
Mg       1.59435003       4.60249205       2.52790405       0.00268692       0.00314076       0.00000388
Mg       4.78305000       2.76149521       0.00000000       0.00699587      -0.00760688       0.00000178
Mg       4.78305003       4.60249205       2.52790405      -0.00233334      -0.00155369       0.00000305
Mg       7.97175000       2.76149521       0.00000000      -0.00486784       0.00551742       0.00000215
Mg       7.97175003       4.60249205       2.52790405      -0.00195542       0.00456952       0.00000238
Mg      11.16045000       2.76149521       0.00000000       0.00498854      -0.00005676       0.00000200
Mg      11.16045003       4.60249205       2.52790405      -0.00294300       0.00131119       0.00000276
Mg      -3.18870000       5.52299041       0.00000000       0.00108994      -0.00103294       0.00000095
Mg      -3.18869997       7.36398725       2.52790405      -0.00189088       0.00185572       0.00000188
Mg       0.00000000       5.52299041       0.00000000      -0.00277314      -0.00207231       0.00000092
Mg       0.00000003       7.36398725       2.52790405       0.00268623       0.00314132       0.00000257
Mg       3.18870000       5.52299041       0.00000000       0.00699558      -0.00760868       0.00000226
Mg       3.18870003       7.36398725       2.52790405      -0.00233457      -0.00155312       0.00000283
Mg       6.37740000       5.52299041       0.00000000      -0.00486845       0.00551683       0.00000125
Mg       6.37740003       7.36398725       2.52790405      -0.00195506       0.00456804       0.00000176
Mg       9.56610000       5.52299041       0.00000000       0.00498619      -0.00005801       0.00000184
Mg       9.56610003       7.36398725       2.52790405      -0.00294312       0.00131360       0.00000276
Mg      -4.78305000       8.28448562       0.00000000       0.00109071      -0.00103371       0.00000343
Mg      -4.78304997      10.12548246       2.52790405      -0.00189096       0.00185538       0.00000404
Mg      -1.59435000       8.28448562       0.00000000      -0.00277341      -0.00207230       0.00000142
Mg      -1.59434997      10.12548246       2.52790405       0.00268395       0.00314155       0.00000291
Mg       1.59435000       8.28448562       0.00000000       0.00699588      -0.00760717       0.00000197
Mg       1.59435003      10.12548246       2.52790405      -0.00233367      -0.00155191       0.00000356
Mg       4.78305000       8.28448562       0.00000000      -0.00486839       0.00551587       0.00000288
Mg       4.78305003      10.12548246       2.52790405      -0.00195470       0.00456874       0.00000296
Mg       7.97175000       8.28448562       0.00000000       0.00498838      -0.00005807       0.00000275
Mg       7.97175003      10.12548246       2.52790405      -0.00294083       0.00131128       0.00000247
Mg       0.00000000       0.00000000       5.05580795       0.00108886      -0.00103460       0.00000010
Mg       0.00000003       1.84099684       7.58371200      -0.00188842       0.00185456      -0.00000338
Mg       3.18870000       0.00000000       5.05580795      -0.00277386      -0.00207118      -0.00000022
Mg       3.18870003       1.84099684       7.58371200       0.00268746       0.00314094      -0.00000214
Mg       6.37740000       0.00000000       5.05580795       0.00699548      -0.00760607       0.00000227
Mg       6.37740003       1.84099684       7.58371200      -0.00233640      -0.00155311      -0.00000008
Mg       9.56610000       0.00000000       5.05580795      -0.00486720       0.00551727      -0.00000050
Mg       9.56610003       1.84099684       7.58371200      -0.00195771       0.00457010      -0.00000320
Mg      12.75480000       0.00000000       5.05580795       0.00498871      -0.00005756      -0.00000007
Mg      12.75480003       1.84099684       7.58371200      -0.00294219       0.00131306      -0.00000252
Mg      -1.59435000       2.76149521       5.05580795       0.00108997      -0.00103464       0.00000170
Mg      -1.59434997       4.60249205       7.58371200      -0.00189048       0.00185423      -0.00000112
Mg       1.59435000       2.76149521       5.05580795      -0.00277349      -0.00207383       0.00000028
Mg       1.59435003       4.60249205       7.58371200       0.00268593       0.00314054      -0.00000227
Mg       4.78305000       2.76149521       5.05580795       0.00699548      -0.00760714       0.00000090
Mg       4.78305003       4.60249205       7.58371200      -0.00233244      -0.00155417      -0.00000166
Mg       7.97175000       2.76149521       5.05580795      -0.00486883       0.00551817      -0.00000025
Mg       7.97175003       4.60249205       7.58371200      -0.00195660       0.00456851      -0.00000196
Mg      11.16045000       2.76149521       5.05580795       0.00498670      -0.00005768       0.00000154
Mg      11.16045003       4.60249205       7.58371200      -0.00294300       0.00131208      -0.00000258
Mg      -3.18870000       5.52299041       5.05580795       0.00108968      -0.00103326       0.00000055
Mg      -3.18869997       7.36398725       7.58371200      -0.00189140       0.00185639      -0.00000110
Mg       0.00000000       5.52299041       5.05580795      -0.00277299      -0.00207115      -0.00000041
Mg       0.00000003       7.36398725       7.58371200       0.00268592       0.00314266      -0.00000068
Mg       3.18870000       5.52299041       5.05580795       0.00699522      -0.00760792       0.00000168
Mg       3.18870003       7.36398725       7.58371200      -0.00233683      -0.00155328      -0.00000122
Mg       6.37740000       5.52299041       5.05580795      -0.00486649       0.00551675      -0.00000042
Mg       6.37740003       7.36398725       7.58371200      -0.00195568       0.00456738      -0.00000292
Mg       9.56610000       5.52299041       5.05580795       0.00498861      -0.00005772       0.00000085
Mg       9.56610003       7.36398725       7.58371200      -0.00294080       0.00131119      -0.00000221
Mg      -4.78305000       8.28448562       5.05580795       0.00108923      -0.00103441       0.00000010
Mg      -4.78304997      10.12548246       7.58371200      -0.00188865       0.00185547      -0.00000358
Mg      -1.59435000       8.28448562       5.05580795      -0.00277542      -0.00207096       0.00000161
Mg      -1.59434997      10.12548246       7.58371200       0.00268539       0.00314177      -0.00000090
Mg       1.59435000       8.28448562       5.05580795       0.00699512      -0.00760708       0.00000077
Mg       1.59435003      10.12548246       7.58371200      -0.00233568      -0.00155267      -0.00000178
Mg       4.78305000       8.28448562       5.05580795      -0.00486779       0.00551639      -0.00000054
Mg       4.78305003      10.12548246       7.58371200      -0.00195623       0.00456852      -0.00000181
Mg       7.97175000       8.28448562       5.05580795       0.00498872      -0.00005773       0.00000004
Mg       7.97175003      10.12548246       7.58371200      -0.00294025       0.00131219      -0.00000249
Mg       0.00000000       0.00000000      10.11161605       0.00109101      -0.00103332      -0.00000110
Mg       0.00000003       1.84099684      12.63951995      -0.00188864       0.00185622      -0.00000004
Mg       3.18870000       0.00000000      10.11161605      -0.00277184      -0.00207128      -0.00000382
Mg       3.18870003       1.84099684      12.63951995       0.00268611       0.00314218      -0.00000111
Mg       6.37740000       0.00000000      10.11161605       0.00699351      -0.00760686      -0.00000364
Mg       6.37740003       1.84099684      12.63951995      -0.00233627      -0.00155325      -0.00000059
Mg       9.56610000       0.00000000      10.11161605      -0.00486990       0.00551825      -0.00000270
Mg       9.56610003       1.84099684      12.63951995      -0.00195618       0.00457025      -0.00000008
Mg      12.75480000       0.00000000      10.11161605       0.00498810      -0.00005715      -0.00000323
Mg      12.75480003       1.84099684      12.63951995      -0.00294077       0.00131443       0.00000161
Mg      -1.59435000       2.76149521      10.11161605       0.00109259      -0.00103424      -0.00000271
Mg      -1.59434997       4.60249205      12.63951995      -0.00189002       0.00185603      -0.00000086
Mg       1.59435000       2.76149521      10.11161605      -0.00277307      -0.00207324      -0.00000254
Mg       1.59435003       4.60249205      12.63951995       0.00268670       0.00314145       0.00000078
Mg       4.78305000       2.76149521      10.11161605       0.00699601      -0.00760816      -0.00000225
Mg       4.78305003       4.60249205      12.63951995      -0.00233469      -0.00155328       0.00000113
Mg       7.97175000       2.76149521      10.11161605      -0.00486895       0.00551723      -0.00000301
Mg       7.97175003       4.60249205      12.63951995      -0.00195644       0.00456978      -0.00000061
Mg      11.16045000       2.76149521      10.11161605       0.00498697      -0.00005542      -0.00000329
Mg      11.16045003       4.60249205      12.63951995      -0.00294260       0.00131391      -0.00000027
Mg      -3.18870000       5.52299041      10.11161605       0.00109109      -0.00103334      -0.00000197
Mg      -3.18869997       7.36398725      12.63951995      -0.00188922       0.00185445       0.00000036
Mg       0.00000000       5.52299041      10.11161605      -0.00277269      -0.00207219      -0.00000222
Mg       0.00000003       7.36398725      12.63951995       0.00268530       0.00314093      -0.00000115
Mg       3.18870000       5.52299041      10.11161605       0.00699566      -0.00760889      -0.00000208
Mg       3.18870003       7.36398725      12.63951995      -0.00233497      -0.00155452       0.00000064
Mg       6.37740000       5.52299041      10.11161605      -0.00486671       0.00551540      -0.00000195
Mg       6.37740003       7.36398725      12.63951995      -0.00195581       0.00456811      -0.00000027
Mg       9.56610000       5.52299041      10.11161605       0.00498832      -0.00005796      -0.00000271
Mg       9.56610003       7.36398725      12.63951995      -0.00294133       0.00131294       0.00000192
Mg      -4.78305000       8.28448562      10.11161605       0.00109157      -0.00103350      -0.00000321
Mg      -4.78304997      10.12548246      12.63951995      -0.00189012       0.00185489      -0.00000062
Mg      -1.59435000       8.28448562      10.11161605      -0.00277452      -0.00207148      -0.00000248
Mg      -1.59434997      10.12548246      12.63951995       0.00268477       0.00314221      -0.00000120
Mg       1.59435000       8.28448562      10.11161605       0.00699458      -0.00760753      -0.00000221
Mg       1.59435003      10.12548246      12.63951995      -0.00233603      -0.00155303      -0.00000214
Mg       4.78305000       8.28448562      10.11161605      -0.00486763       0.00551702      -0.00000265
Mg       4.78305003      10.12548246      12.63951995      -0.00195553       0.00456793       0.00000018
Mg       7.97175000       8.28448562      10.11161605       0.00498912      -0.00005850      -0.00000312
Mg       7.97175003      10.12548246      12.63951995      -0.00294092       0.00131382       0.00000120
120
Lattice="15.9435 0.0 0.0 -6.3774 11.04598082 0.0 0.0 0.0 15.167424" Properties=species:S:1:pos:R:3:forces:R:3 energy=-180.22125949 stress="-0.003716532411405912 0.0012997492492183545 7.349626656092572e-07 0.0012997492492183545 -0.0008383915559380007 9.306901502878304e-07 7.349626656092572e-07 9.306901502878304e-07 -0.007009673193453704" free_energy=-180.2176151 pbc="T T T"
Mg      -6.36932455      11.04539306       0.00242497      -0.01878797       0.00686391      -0.02843741
Mg       0.00414247       1.84465914       2.52748983      -0.01392030      -0.00058114      -0.00277416
Mg      -3.18253503      11.04454164      15.16347759      -0.00906322       0.00146008       0.00183940
Mg       3.18965049       1.83730737       2.52765682       0.00408105       0.00693671      -0.00131640
Mg       6.37098762       0.00233192      15.16708819       0.01518778      -0.01441444      -0.00024224
Mg       6.37154102       1.84246143       2.52199831       0.00442699      -0.01167663       0.02211352
Mg       3.19148533      11.04173530       0.01128820      -0.02203797       0.01906674      -0.01878055
Mg       9.56519766       1.84529340       2.52621137       0.00991060      -0.01664403       0.01530265
Mg       6.37435594      11.04325213      15.16327525       0.02953901       0.00425924       0.00710891
Mg      12.75311480       1.84321708       2.52561544       0.01120807      -0.00940577       0.02394421
Mg      14.33701760       2.76280393       0.00498053       0.05359941      -0.00484573      -0.01394504
Mg      -1.59135830       4.61179906       2.52680563      -0.01186232      -0.02605517       0.00989047
Mg       1.60151781       2.76093473      15.16178779      -0.01940815      -0.00181736       0.01643744
Mg       1.59252925       4.60813301       2.52982758       0.01764424      -0.02416761      -0.01177683
Mg       4.79040046       2.76657823      15.15798243      -0.01565007      -0.00614032       0.04323288
Mg       4.77871238       4.59959535       2.54309741       0.00721640       0.00779052      -0.05159283
Mg       7.96758792       2.75794039       0.00769823       0.01866063       0.02112709      -0.02921648
Mg       7.97474881       4.60367485       2.52730433      -0.01909434       0.00849452      -0.02045523
Mg      11.16962568       2.75659101       0.00742066      -0.04061887       0.01821351      -0.04100571
Mg      11.15910405       4.60526602       2.51864115       0.00408256      -0.00331646       0.02508054
Mg      -3.18288365       5.52686368       0.00872036      -0.01456533      -0.00934061      -0.03538125
Mg      -3.19460920       7.37017786       2.52714538       0.01920703      -0.00974911       0.01174390
Mg       0.00401502       5.52649121       0.00705088      -0.00961122      -0.00802600      -0.01920065
Mg       0.00655067       7.35473304       2.53476458      -0.02468762       0.05160228      -0.03012888
Mg       3.18931593       5.51557767       0.00175699       0.00698040       0.02216866       0.00422133
Mg       3.18535244       7.36677238       2.52056560       0.00917809      -0.00295706       0.01342173
Mg       6.36929700       5.53660767      15.16054906       0.02590544      -0.04866210       0.02615327
Mg       6.37784782       7.35594920       2.52706893       0.00317427       0.02104872      -0.00063610
Mg       9.56593779       5.52316008      15.15702946      -0.00408857      -0.00664379       0.02150237
Mg       9.56822186       7.36836577       2.53236464      -0.00262294      -0.01111954      -0.02551400
Mg      11.15852297       8.28308156      15.15443583      -0.00387386       0.00257397       0.04885681
Mg      -4.78729834      10.12699586       2.52534500       0.01340674      -0.00144922       0.01168649
Mg      -1.59906319       8.28278310      15.16077445       0.02333135       0.00577442       0.02225611
Mg      -1.59734435      10.11466435       2.53201852       0.00941901       0.02056802      -0.00375327
Mg       1.58841691       8.29249097      15.16497704       0.01385402      -0.02134701       0.00515826
Mg       1.59217547      10.13183146       2.53207615      -0.00834924      -0.01517091      -0.00722354
Mg       4.78862981       8.28923969      15.16239873      -0.02797359      -0.01852860       0.01313891
Mg       4.79215648      10.11436578       2.52215105      -0.01758774       0.03261916       0.02782692
Mg       7.97319576       8.28303859      15.16575998       0.01009640       0.01271917       0.00791323
Mg       7.97802616      10.12968357       2.52702965      -0.01410030      -0.00427943       0.00755037
Mg       0.00353974       0.00292144       5.06816849      -0.01148035      -0.00469548      -0.05071909
Mg      -0.00243473       1.84559451       7.58387581       0.00499991      -0.00278230       0.00629402
Mg      -3.19353098      11.03871245       5.06427001       0.01032422       0.02750481      -0.03202345
Mg       3.19049179       1.84243967       7.58380240      -0.00598487      -0.00096594      -0.01393899
Mg      -0.00568073      11.04384795       5.06098762       0.01397519       0.00529831      -0.00709249
Mg       6.37845638       1.84448859       7.57975755      -0.01003771      -0.02596198       0.00884522
Mg       3.17700442      11.03800739       5.05449870       0.02544703       0.01802120      -0.00372698
Mg       9.56615561       1.83617151       7.58011383      -0.00514591       0.00758948       0.00157035
Mg       6.37286025      11.04411736       5.05666218       0.01479857       0.00485966      -0.00665800
Mg      12.75612918       1.84316693       7.58624496       0.00033072      -0.01233077      -0.00552167
Mg      -1.58977460       2.76951470       5.05633851      -0.01631945      -0.01939552      -0.00168138
Mg      -1.60055983       4.60693617       7.59283869       0.02340033      -0.00763744      -0.02731095
Mg       1.58910944       2.76640503       5.05167043       0.02954892      -0.01916991       0.00962628
Mg       1.59780913       4.59729049       7.57880079      -0.01591940       0.01297235       0.02215768
Mg       4.79027186       2.76317762       5.05303504      -0.01990025      -0.01859348       0.01473731
Mg       4.79145321       4.60451456       7.58500244      -0.01880061      -0.00059061      -0.01490686
Mg       7.97681959       2.76517926       5.05137421      -0.01933676      -0.01979632       0.00595691
Mg       7.96373214       4.59565083       7.58904972       0.02728271       0.02515711      -0.02637522
Mg      11.16261063       2.75596150       5.05732044       0.00010775       0.00480937      -0.01095016
Mg      11.15810994       4.60107109       7.58748171      -0.00973328       0.01443869      -0.02808189
Mg      12.75058620       5.51687745       5.05199941       0.01808282       0.01958508       0.01645747
Mg      -3.18568241       7.36866589       7.58595526      -0.02446674      -0.02894058      -0.00986765
Mg       0.00843638       5.52866606       5.04567399      -0.03264904      -0.01757346       0.05045819
Mg      -0.00901764       7.35616868       7.58238106       0.04436036       0.01153169       0.02668439
Mg       3.18372872       5.52441081       5.06071431       0.02942261      -0.00762965      -0.00853354
Mg       3.19460971       7.36071753       7.58677476      -0.02212843       0.00429572      -0.01019419
Mg       6.38169001       5.52261054       5.05486742      -0.00941416       0.01106717       0.01438340
Mg       6.38393374       7.37565004       7.58636008      -0.01758507      -0.02628941      -0.01593827
Mg       9.56764824       5.51143333       5.04982091       0.00289584       0.02904614       0.02934207
Mg       9.55379851       7.36910596       7.58811389       0.03564115      -0.02587132      -0.01707600
Mg      -4.77790347       8.28242256       5.05931041      -0.01589221      -0.00561955      -0.00585992
Mg      -4.78628219      10.12478324       7.58124532       0.00449379       0.00742545       0.02071363
Mg      -1.58655710       8.28669724       5.07009976      -0.01997015      -0.02416492      -0.04700337
Mg      -1.60481589      10.11827573       7.58372444       0.03379188       0.02989856       0.02171829
Mg       1.59628391       8.28282794       5.05855280       0.00757627       0.00050099       0.00552583
Mg       1.59620321      10.12038186       7.59252382      -0.01959345      -0.00740698      -0.01258585
Mg       4.78666041       8.28083547       5.05321690      -0.01438748       0.00574294       0.00372304
Mg       4.77951204      10.12759853       7.58203903       0.01529107       0.00351984       0.00448538
Mg       7.97245939       8.28134403       5.05379933       0.00917660       0.00992215      -0.00170868
Mg       7.97956515      10.12558253       7.57912643      -0.03327626       0.01579061       0.02174060
Mg       0.00294792       0.00115077      10.11105258      -0.00387369      -0.01173689      -0.00380117
Mg       0.00171297       1.84227574      12.63738149      -0.00421186      -0.00879874       0.01945870
Mg       3.19310315       0.00339023      10.11068174      -0.00032266      -0.00314935      -0.00229484
Mg       3.19861392       1.84445302      12.63797500      -0.03771887      -0.01112471      -0.00161696
Mg       0.00831807      11.04307540      10.11204499      -0.01884140       0.01393582      -0.01178681
Mg       6.36966064       1.85115848      12.64297024       0.02343247      -0.02591674      -0.02766580
Mg       9.56728074       0.00346325      10.11630460       0.00115465      -0.01680361      -0.01461257
Mg       9.56313381       1.83456024      12.63458083       0.00951711       0.03373775       0.03466144
Mg       6.37915261      11.04080755      10.12152781      -0.01042127       0.01414521      -0.03108459
Mg      12.75560193       1.84682647      12.64347713      -0.01326156      -0.01329497      -0.01762555
Mg      14.34180626       2.76038343      10.11336470       0.02050945      -0.00098239      -0.00044331
Mg      -1.59670941       4.60056640      12.64220913      -0.00580898       0.01571206       0.00443582
Mg       1.59150810       2.75249295      10.11385916      -0.00113288       0.02890066      -0.00347827
Mg       1.58101157       4.61126222      12.64665122       0.04372893      -0.03316683      -0.01983610
Mg       4.77552365       2.76889060      10.10751523       0.03244499      -0.02466058       0.00180933
Mg       4.78017883       4.60137629      12.64019884      -0.00581454       0.01603516      -0.01696549
Mg       7.97173367       2.75906354      10.10341487      -0.01295039       0.00826106       0.01785712
Mg       7.97141758       4.59233725      12.63040766      -0.00088688       0.02816103       0.02329536
Mg      11.15777490       2.76077545      10.10479223       0.00165205      -0.00594901       0.02703708
Mg      11.16482152       4.61220599      12.63508727      -0.01544206      -0.03488961       0.01972550
Mg      12.74607903       5.51385461      10.10714803       0.03083195       0.03404836       0.02667734
Mg      -3.19265182       7.36967140      12.64580670       0.02248016      -0.03193102      -0.03309209
Mg       0.00526617       5.52153146      10.12600751      -0.01708527      -0.01426323      -0.05382107
Mg       0.00410108       7.35849453      12.63380744      -0.01709575       0.02111746       0.03904877
Mg       3.18839188       5.51754960      10.10680176      -0.00209740       0.00241111       0.02065756
Mg       3.18858119       7.35941543      12.64186802       0.00532765       0.00934899       0.00143667
Mg       6.37218836       5.53006238      10.10678492       0.00684904      -0.00774598       0.02328282
Mg       6.37690779       7.36622638      12.64330346      -0.00470424       0.00121311      -0.02972406
Mg       9.56392151       5.52488502      10.10803790      -0.00001716      -0.00006967       0.00385580
Mg       9.56581681       7.36540346      12.63387721      -0.00535878      -0.00491022      -0.00410581
Mg      -4.76444126       8.28551709      10.10473338      -0.04699939      -0.00882803       0.01566475
Mg      -4.77806179      10.11629452      12.63363423      -0.00804310       0.04321548       0.00814403
Mg      -1.58813191       8.28337251      10.11550058      -0.00598649      -0.01210291      -0.01164988
Mg      -1.58933982      10.12247011      12.62774790      -0.00572869       0.00991165       0.03075001
Mg       1.59655464       8.27751041      10.12600478       0.00500243       0.01395756      -0.04957796
Mg       1.59042369      10.13321011      12.63885562       0.00370126      -0.01363066       0.01663393
Mg       4.77981274       8.28496269      10.10222984      -0.00240864       0.01200571       0.04123908
Mg       4.77189044      10.12733973      12.64888947       0.02347261      -0.00660809      -0.03659650
Mg       7.96792975       8.28829460      10.11787656       0.02255502      -0.00634039      -0.01595683
Mg       7.97227473      10.12556530      12.63222897       0.00326224       0.01110442       0.04002868
120
Lattice="15.9435 0.0 0.0 -6.3774 11.04598082 0.0 0.0 0.0 15.167424" Properties=species:S:1:pos:R:3:forces:R:3 energy=-180.17011696 stress="-0.003768135367613523 0.0013196229195656978 1.2268472617073405e-05 0.0013196229195656978 -0.000861397689919406 2.2211533696098232e-06 1.2268472617073405e-05 2.2211533696098232e-06 -0.0070655558650878055" free_energy=-180.16647426 pbc="T T T"
Mg      -6.36125660      11.04480807       0.00483871      -0.03815081       0.01528868      -0.05286830
Mg       0.00827930       1.84832121       2.52707454      -0.02480623      -0.00554720      -0.00515720
Mg      -3.17637389      11.04310301      15.15953193      -0.01432252       0.00025463       0.00136140
Mg       3.19060254       1.83362067       2.52740929       0.00573972       0.00718528      -0.00371578
Mg       6.36458111       0.00465809      15.16675239       0.02188670      -0.01935951       0.00054382
Mg       6.36568363       1.84392126       2.51610137       0.01145818      -0.02022589       0.04477132
Mg       3.19426186      11.03749729       0.02256882      -0.03836620       0.03286106      -0.04140037
Mg       9.56429912       1.84958332       2.52452475       0.01752542      -0.03169301       0.02797868
Mg       6.37132345      11.04052521      15.15912939       0.05678112       0.00796802       0.01458072
Mg      12.75143382       1.84543357       2.52333638       0.02402261      -0.02077357       0.05162267
Mg      14.32490628       2.76411067       0.00995559       0.10897572      -0.01188299      -0.02044937
Mg      -1.58837147       4.62109569       2.52571114      -0.02431073      -0.04725077       0.01914004
Mg       1.60867788       2.76037360      15.15615809      -0.03614636      -0.00232746       0.03041560
Mg       1.59071562       4.61376436       2.53174657       0.03694564      -0.05268419      -0.02543994
Mg       4.79774474       2.77165872      15.14855815      -0.03868064      -0.00165906       0.09086044
Mg       4.77437757       4.59670174       2.55827045       0.01426575       0.01671461      -0.10017140
Mg       7.96343311       2.75439396       0.01538492       0.04311967       0.03323295      -0.06357838
Mg       7.97773994       4.60486097       2.52669642      -0.03258461       0.01508092      -0.04275513
Mg      11.17878502       2.75169411       0.01482494      -0.08562208       0.03608683      -0.08257548
Mg      11.15775947       4.60803867       2.50938811       0.00496989      -0.00989878       0.04178426
Mg      -3.17707327       5.53073320       0.01742661      -0.02853666      -0.01269185      -0.06295610
Mg      -3.20051079       7.37636460       2.52639140       0.03241519      -0.01347889       0.02324427
Mg       0.00802621       5.52998870       0.01409418      -0.01681246      -0.01429474      -0.03291791
Mg       0.01309143       7.34549926       2.54161313      -0.04715961       0.09921471      -0.05171413
Mg       3.18993457       5.50817377       0.00351551       0.00683648       0.04947024       0.00817512
Mg       3.18200842       7.36955630       2.51323245       0.02183264      -0.00570773       0.02186541
Mg       6.36120421       5.55020561      15.15368444       0.05326843      -0.09281788       0.04552508
Mg       6.37829673       7.34791944       2.52623351       0.00601743       0.03566570      -0.00401372
Mg       9.56577370       5.52332720      15.14664342      -0.01314833      -0.01317014       0.03449410
Mg       9.57034250       7.37273997       2.53681522      -0.00342931      -0.02279910      -0.04992291
Mg      11.15659435       8.28167861      15.14146693      -0.00921240       0.00552771       0.08446181
Mg      -4.79154138      10.12850861       2.52279051       0.02509847      -0.00599674       0.02274617
Mg      -1.60376728       8.28108279      15.15413370       0.04523103       0.01117171       0.04152401
Mg      -1.60033522      10.10385454       2.53613162       0.01506165       0.03502191      -0.00937380