120
Lattice="15.9435 0.0 0.0 -6.3774 11.04598082 0.0 0.0 0.0 15.3984" Properties=species:S:1:pos:R:3:forces:R:3 energy=-180.53392783 stress="-0.001212884225604099 0.00036670040766581633 -5.30528275700077e-09 0.00036670040766581633 0.0017517815723703265 1.649630861970945e-08 -5.30528275700077e-09 1.649630861970945e-08 -0.0008507039500547928" free_energy=-180.53300763 pbc="T T T"
Mg       0.00000000       0.00000000       0.00000000       0.00007065      -0.00129174       0.00000386
Mg       0.00000003       1.84099684       2.56640005      -0.00114822       0.00354381       0.00000803
Mg       3.18870000       0.00000000       0.00000000      -0.00093223       0.00007933       0.00000313
Mg       3.18870003       1.84099684       2.56640005       0.00371533       0.00218715       0.00000818
Mg       6.37740000       0.00000000       0.00000000       0.00268203      -0.00565708       0.00000294
Mg       6.37740003       1.84099684       2.56640005      -0.00178980       0.00102147       0.00000833
Mg       9.56610000       0.00000000       0.00000000      -0.00248873       0.00325329       0.00000330
Mg       9.56610003       1.84099684       2.56640005      -0.00004357       0.00341243       0.00000760
Mg      12.75480000       0.00000000       0.00000000       0.00131228      -0.00239737       0.00000350
Mg      12.75480003       1.84099684       2.56640005       0.00165092      -0.00011200       0.00000890
Mg      -1.59435000       2.76149521       0.00000000       0.00007113      -0.00129082       0.00000368
Mg      -1.59434997       4.60249205       2.56640005      -0.00114909       0.00354278       0.00000799
Mg       1.59435000       2.76149521       0.00000000      -0.00093158       0.00007893       0.00000224
Mg       1.59435003       4.60249205       2.56640005       0.00371448       0.00218730       0.00000923
Mg       4.78305000       2.76149521       0.00000000       0.00268197      -0.00565705       0.00000321
Mg       4.78305003       4.60249205       2.56640005      -0.00179025       0.00102028       0.00000977
Mg       7.97175000       2.76149521       0.00000000      -0.00248989       0.00325201       0.00000292
Mg       7.97175003       4.60249205       2.56640005      -0.00004302       0.00341250       0.00000688
Mg      11.16045000       2.76149521       0.00000000       0.00131243      -0.00239677       0.00000334
Mg      11.16045003       4.60249205       2.56640005       0.00164997      -0.00011014       0.00000846
Mg      -3.18870000       5.52299041       0.00000000       0.00007154      -0.00129132       0.00000457
Mg      -3.18869997       7.36398725       2.56640005      -0.00115026       0.00354271       0.00000844
Mg       0.00000000       5.52299041       0.00000000      -0.00093148       0.00007771       0.00000279
Mg       0.00000003       7.36398725       2.56640005       0.00371555       0.00218770       0.00000915
Mg       3.18870000       5.52299041       0.00000000       0.00268128      -0.00565786       0.00000283
Mg       3.18870003       7.36398725       2.56640005      -0.00178887       0.00102029       0.00000878
Mg       6.37740000       5.52299041       0.00000000      -0.00248832       0.00325192       0.00000324
Mg       6.37740003       7.36398725       2.56640005      -0.00004048       0.00341292       0.00000760
Mg       9.56610000       5.52299041       0.00000000       0.00131081      -0.00239755       0.00000366
Mg       9.56610003       7.36398725       2.56640005       0.00165064      -0.00011105       0.00000884
Mg      -4.78305000       8.28448562       0.00000000       0.00007141      -0.00129166       0.00000358
Mg      -4.78304997      10.12548246       2.56640005      -0.00114970       0.00354265       0.00000795
Mg      -1.59435000       8.28448562       0.00000000      -0.00093213       0.00007924       0.00000393
Mg      -1.59434997      10.12548246       2.56640005       0.00371473       0.00218686       0.00000929
Mg       1.59435000       8.28448562       0.00000000       0.00268151      -0.00565792       0.00000350
Mg       1.59435003      10.12548246       2.56640005      -0.00179006       0.00101923       0.00000696
Mg       4.78305000       8.28448562       0.00000000      -0.00248849       0.00325350       0.00000227
Mg       4.78305003      10.12548246       2.56640005      -0.00004269       0.00341244       0.00000748
Mg       7.97175000       8.28448562       0.00000000       0.00131218      -0.00239746       0.00000326
Mg       7.97175003      10.12548246       2.56640005       0.00165037      -0.00011180       0.00000922
Mg       0.00000000       0.00000000       5.13279995       0.00007244      -0.00129050       0.00000435
Mg       0.00000003       1.84099684       7.69920000      -0.00114948       0.00354351      -0.00000453
Mg       3.18870000       0.00000000       5.13279995      -0.00093173       0.00007963       0.00000422
Mg       3.18870003       1.84099684       7.69920000       0.00371510       0.00218626      -0.00000407
Mg       6.37740000       0.00000000       5.13279995       0.00268099      -0.00565709       0.00000603
Mg       6.37740003       1.84099684       7.69920000      -0.00179013       0.00102072      -0.00000245
Mg       9.56610000       0.00000000       5.13279995      -0.00249068       0.00325303       0.00000327
Mg       9.56610003       1.84099684       7.69920000      -0.00004247       0.00341213      -0.00000315
Mg      12.75480000       0.00000000       5.13279995       0.00131074      -0.00239712       0.00000309
Mg      12.75480003       1.84099684       7.69920000       0.00165066      -0.00011057      -0.00000281
Mg      -1.59435000       2.76149521       5.13279995       0.00007251      -0.00128986       0.00000348
Mg      -1.59434997       4.60249205       7.69920000      -0.00114872       0.00354370      -0.00000335
Mg       1.59435000       2.76149521       5.13279995      -0.00092983       0.00007959       0.00000382
Mg       1.59435003       4.60249205       7.69920000       0.00371589       0.00218702      -0.00000506
Mg       4.78305000       2.76149521       5.13279995       0.00268160      -0.00565613       0.00000528
Mg       4.78305003       4.60249205       7.69920000      -0.00179023       0.00101903      -0.00000350
Mg       7.97175000       2.76149521       5.13279995      -0.00248878       0.00325297       0.00000481
Mg       7.97175003       4.60249205       7.69920000      -0.00004264       0.00341176      -0.00000231
Mg      11.16045000       2.76149521       5.13279995       0.00131006      -0.00239693       0.00000307
Mg      11.16045003       4.60249205       7.69920000       0.00165158      -0.00011161      -0.00000210
Mg      -3.18870000       5.52299041       5.13279995       0.00007321      -0.00129049       0.00000428
Mg      -3.18869997       7.36398725       7.69920000      -0.00114958       0.00354301      -0.00000317
Mg       0.00000000       5.52299041       5.13279995      -0.00093079       0.00007900       0.00000494
Mg       0.00000003       7.36398725       7.69920000       0.00371489       0.00218642      -0.00000422
Mg       3.18870000       5.52299041       5.13279995       0.00268127      -0.00565582       0.00000629
Mg       3.18870003       7.36398725       7.69920000      -0.00178969       0.00101971      -0.00000241
Mg       6.37740000       5.52299041       5.13279995      -0.00249018       0.00325324       0.00000327
Mg       6.37740003       7.36398725       7.69920000      -0.00004196       0.00341063      -0.00000253
Mg       9.56610000       5.52299041       5.13279995       0.00131297      -0.00239597       0.00000371
Mg       9.56610003       7.36398725       7.69920000       0.00165205      -0.00011191      -0.00000313
Mg      -4.78305000       8.28448562       5.13279995       0.00007214      -0.00129080       0.00000432
Mg      -4.78304997      10.12548246       7.69920000      -0.00115017       0.00354282      -0.00000382
Mg      -1.59435000       8.28448562       5.13279995      -0.00093154       0.00007965       0.00000543
Mg      -1.59434997      10.12548246       7.69920000       0.00371494       0.00218718      -0.00000383
Mg       1.59435000       8.28448562       5.13279995       0.00268181      -0.00565692       0.00000568
Mg       1.59435003      10.12548246       7.69920000      -0.00179101       0.00101987      -0.00000253
Mg       4.78305000       8.28448562       5.13279995      -0.00249039       0.00325332       0.00000422
Mg       4.78305003      10.12548246       7.69920000      -0.00004193       0.00341244      -0.00000378
Mg       7.97175000       8.28448562       5.13279995       0.00131275      -0.00239668       0.00000357
Mg       7.97175003      10.12548246       7.69920000       0.00165122      -0.00011158      -0.00000323
Mg       0.00000000       0.00000000      10.26560005       0.00007245      -0.00129017      -0.00000878
Mg       0.00000003       1.84099684      12.83199995      -0.00115050       0.00354322      -0.00000458
Mg       3.18870000       0.00000000      10.26560005      -0.00093235       0.00007972      -0.00000984
Mg       3.18870003       1.84099684      12.83199995       0.00371609       0.00218775      -0.00000391
Mg       6.37740000       0.00000000      10.26560005       0.00268243      -0.00565703      -0.00000850
Mg       6.37740003       1.84099684      12.83199995      -0.00179006       0.00102212      -0.00000520
Mg       9.56610000       0.00000000      10.26560005      -0.00248856       0.00325400      -0.00000737
Mg       9.56610003       1.84099684      12.83199995      -0.00004230       0.00341270      -0.00000499
Mg      12.75480000       0.00000000      10.26560005       0.00131227      -0.00239717      -0.00000734
Mg      12.75480003       1.84099684      12.83199995       0.00164943      -0.00011266      -0.00000467
Mg      -1.59435000       2.76149521      10.26560005       0.00007273      -0.00129022      -0.00000823
Mg      -1.59434997       4.60249205      12.83199995      -0.00114989       0.00354245      -0.00000377
Mg       1.59435000       2.76149521      10.26560005      -0.00093210       0.00007932      -0.00000990
Mg       1.59435003       4.60249205      12.83199995       0.00371510       0.00218636      -0.00000458
Mg       4.78305000       2.76149521      10.26560005       0.00268281      -0.00565714      -0.00000864
Mg       4.78305003       4.60249205      12.83199995      -0.00178878       0.00102254      -0.00000445
Mg       7.97175000       2.76149521      10.26560005      -0.00248964       0.00325292      -0.00000818
Mg       7.97175003       4.60249205      12.83199995      -0.00004304       0.00341186      -0.00000367
Mg      11.16045000       2.76149521      10.26560005       0.00131124      -0.00239684      -0.00000776
Mg      11.16045003       4.60249205      12.83199995       0.00165052      -0.00010994      -0.00000441
Mg      -3.18870000       5.52299041      10.26560005       0.00007193      -0.00129021      -0.00000753
Mg      -3.18869997       7.36398725      12.83199995      -0.00114935       0.00354341      -0.00000472
Mg       0.00000000       5.52299041      10.26560005      -0.00093184       0.00007794      -0.00000865
Mg       0.00000003       7.36398725      12.83199995       0.00371632       0.00218804      -0.00000368
Mg       3.18870000       5.52299041      10.26560005       0.00268120      -0.00565700      -0.00000762
Mg       3.18870003       7.36398725      12.83199995      -0.00178934       0.00102170      -0.00000367
Mg       6.37740000       5.52299041      10.26560005      -0.00248998       0.00325241      -0.00000722
Mg       6.37740003       7.36398725      12.83199995      -0.00004354       0.00341276      -0.00000540
Mg       9.56610000       5.52299041      10.26560005       0.00131122      -0.00239741      -0.00000655
Mg       9.56610003       7.36398725      12.83199995       0.00164820      -0.00011057      -0.00000345
Mg      -4.78305000       8.28448562      10.26560005       0.00007207      -0.00128960      -0.00000875
Mg      -4.78304997      10.12548246      12.83199995      -0.00115039       0.00354339      -0.00000429
Mg      -1.59435000       8.28448562      10.26560005      -0.00093094       0.00007885      -0.00000983
Mg      -1.59434997      10.12548246      12.83199995       0.00371454       0.00218755      -0.00000444
Mg       1.59435000       8.28448562      10.26560005       0.00268186      -0.00565643      -0.00000873
Mg       1.59435003      10.12548246      12.83199995      -0.00179014       0.00102165      -0.00000365
Mg       4.78305000       8.28448562      10.26560005      -0.00249008       0.00325303      -0.00000815
Mg       4.78305003      10.12548246      12.83199995      -0.00004246       0.00341326      -0.00000400
Mg       7.97175000       8.28448562      10.26560005       0.00131318      -0.00239703      -0.00000780
Mg       7.97175003      10.12548246      12.83199995       0.00164911      -0.00011129      -0.00000437
120
Lattice="15.9435 0.0 0.0 -6.3774 11.04598082 0.0 0.0 0.0 15.3984" Properties=species:S:1:pos:R:3:forces:R:3 energy=-180.51704191 stress="-0.0012341288933630156 0.0003808832073053803 5.300351964791322e-07 0.0003808832073053803 0.0016741956505773026 -1.9589350882132158e-06 5.300351964791322e-07 -1.9589350882132158e-06 -0.0008481719195986412" free_energy=-180.51611738 pbc="T T T"
Mg       9.55905591      11.04420893      15.39753661       0.01791559       0.00241505       0.00171455
Mg      -0.00684314       1.84300124       2.57070899       0.02814094      -0.01124960      -0.01112787
Mg      -3.19381066      11.04439539      15.39658699       0.01717333       0.00512930       0.01100385
Mg       3.18466566       1.84099110       2.57212364       0.00571466       0.00224267      -0.02470615
Mg       0.00335164      11.04059811       0.00014259      -0.01622323       0.01967658       0.00438130
Mg       6.37672958       1.83455736       2.57312838      -0.00663860       0.00307226      -0.02226879
Mg       9.56367745       0.00765862      15.39450143       0.00361380      -0.01661762       0.00286810
Mg       9.56379384       1.83433910       2.56054512       0.00836403       0.02214818       0.02485149
Mg      12.75812132       0.00132695      15.39797485      -0.01256594      -0.02365751       0.00211645
Mg      12.76467652       1.83516600       2.57202216      -0.03027390       0.01565058      -0.02505297
Mg      14.34768706       2.75049860       0.00369192       0.01201248       0.04211161      -0.01150769
Mg      -1.59128346       4.60468257       2.57918396      -0.00789637       0.00145236      -0.05787068
Mg       1.59432411       2.75805173       0.00200225      -0.00689981      -0.00304294      -0.01147993
Mg       1.59131978       4.60932376       2.55843477       0.00795786      -0.01275803       0.02009937
Mg       4.78168642       2.75691654      15.39176098      -0.00088988      -0.00438079       0.02851578
Mg       4.78678221       4.59699811       2.56235582      -0.01837458       0.00510037      -0.00402500
Mg       7.96367981       2.76459040       0.00619200       0.02091873      -0.00764749      -0.01735722
Mg       7.97236740       4.60076412       2.57051019       0.00702059      -0.01650928      -0.00618786
Mg      11.16456454       2.75715911       0.00659252      -0.01340948       0.01822421      -0.01446832
Mg      11.16304146       4.60277571       2.56435114       0.00306929      -0.00544114       0.00378046
Mg      -3.18919556       5.52466200       0.00164701       0.02073125      -0.00498556      -0.00015494
Mg      -3.18837054       7.36481205       2.56749026      -0.00384738      -0.00156126      -0.00353161
Mg       0.01067086       5.51845073      15.39050447      -0.04435239       0.00366886       0.01902416
Mg       0.00070725       7.36724836       2.55402143      -0.00571525      -0.00995616       0.03484351
Mg       3.18816895       5.52412450       0.00480846       0.01388630      -0.00902965      -0.01114659
Mg       3.18143257       7.36527289       2.57001775       0.01975695      -0.00319350      -0.00523961
Mg       6.38597563       5.51725158       0.00531152      -0.01899108       0.01972961      -0.02363690
Mg       6.37777120       7.35844327       2.56384315      -0.01952779       0.01813349       0.00303209
Mg       9.56600536       5.52146927      15.39773171       0.01262865      -0.01065811       0.00542576
Mg       9.55319383       7.34663667       2.57579723       0.03412828       0.04932601      -0.01994858
Mg      11.15109901       8.28470344       0.00322704       0.01873845      -0.00832870       0.01501634
Mg      -4.78020029      10.12483141       2.57296855      -0.02640391      -0.00672971      -0.01481928
Mg      -1.59121465       8.29563311       0.00336424      -0.02220708      -0.03147257      -0.02620814
Mg      -1.59273550      10.11635980       2.56971841       0.00380941       0.03616118      -0.00218388
Mg       1.58977304       8.28809500       0.00000123       0.02484766      -0.01701990      -0.00393341
Mg       1.60233942      10.12465301       2.56314237      -0.01355672       0.00766258       0.02195656
Mg       4.77662888       8.28181779      15.39757388       0.01492155       0.00778569       0.01237716
Mg       4.78195366      10.13228170       2.56702091       0.00933758      -0.01818725      -0.00862821
Mg       7.97463883       8.27539776       0.00211127      -0.01992414       0.01887419      -0.00882601
Mg       7.97279851      10.12378104       2.56546660       0.00283875      -0.00940777       0.01450127
Mg      -6.37220232      11.04408986       5.14304543      -0.02166367       0.00055530      -0.02679725
Mg      -0.00597295       1.84414837       7.70831616       0.01534859      -0.00605960      -0.03836714
Mg       3.17879676       0.00177608       5.12607870       0.02691951      -0.00312988       0.02541543
Mg       3.19101216       1.84063840       7.70713526      -0.00698134       0.00368941      -0.02317234
Mg       6.37751827       0.00636723       5.13718957      -0.00242303      -0.02382270      -0.02023631
Mg       6.37605188       1.83028301       7.69229905      -0.00489904       0.03827378       0.02885175
Mg       9.57978785       0.00592142       5.14550856      -0.04724841      -0.00584783      -0.02830986
Mg       9.57601249       1.84811366       7.70075462      -0.02911850      -0.00449074      -0.00082716
Mg      12.74633891       0.00706092       5.13192455       0.04095188      -0.03720221       0.00181245
Mg      12.75176914       1.83238572       7.69649404       0.01184657       0.02838237      -0.00114101
Mg      14.34286195       2.76000168       5.11975781       0.01877685      -0.00703904       0.05396498
Mg      -1.60003577       4.59876491       7.69339727       0.01357051       0.01479781       0.01337396
Mg       1.58826079       2.76818476       5.13029494       0.00359814      -0.01873000       0.01144014
Mg       1.59026795       4.59375534       7.69975773       0.00789219       0.03645598      -0.00165003
Mg       4.77757047       2.76079279       5.12220416       0.00403196      -0.00689795       0.03785040
Mg       4.78608201       4.60659618       7.70046436      -0.01410700      -0.01158015      -0.00862987
Mg       7.96573723       2.76547286       5.13593783       0.02764510      -0.01539070      -0.00473984
Mg       7.96490182       4.60427100       7.69513143       0.02873818      -0.00076037       0.00341305
Mg      11.16809035       2.76331602       5.12462371      -0.02494900       0.00484873       0.00855309
Mg      11.16218392       4.59438617       7.69186343      -0.01144295       0.02394024       0.01481967
Mg      -3.18012437       5.52500586       5.13452395      -0.02208246      -0.00192862      -0.00324616
Mg      -3.19844183       7.36361953       7.70447903       0.02839613      -0.00195768      -0.01163464
Mg      -0.00692130       5.51855004       5.13253155       0.02833986       0.02807811       0.00246798
Mg      -0.00087817       7.37147952       7.69693674      -0.00911265      -0.02479859       0.01745631
Mg       3.19114863       5.51840876       5.13041320      -0.01391769       0.01303693       0.00501945
Mg       3.18354116       7.36857387       7.69753112       0.01017860      -0.00012259      -0.00792178
Mg       6.37867200       5.51357890       5.12468237      -0.01059841       0.03402917       0.01654923
Mg       6.38241815       7.36831330       7.69820665      -0.01811901      -0.00352759      -0.01195974
Mg       9.56820869       5.52377247       5.13030125       0.00545443      -0.02398425       0.01230531
Mg       9.56805818       7.36245274       7.68795593       0.00108656       0.00338696       0.04173841
Mg      -4.77401526       8.27385077       5.13166447      -0.01706719       0.02346351      -0.00163706
Mg      -4.78154592      10.12459723       7.69570364      -0.01081082       0.00488802       0.01906574
Mg      -1.59217116       8.29187261       5.13884089      -0.00429380      -0.02031413      -0.01208072
Mg      -1.60441146      10.12134828       7.70240133       0.01303904       0.01392830      -0.00589858
Mg       1.58693002       8.29205355       5.13364347       0.01683268      -0.02025005      -0.00839106
Mg       1.58485284      10.13569689       7.69664464       0.02770457      -0.01251743       0.00749371
Mg       4.78155220       8.28514904       5.12896790       0.00130730      -0.00472594       0.00605542
Mg       4.79085166      10.12501742       7.70001612      -0.01785008      -0.00419878       0.00542261
Mg       7.97179786       8.27715075       5.13428112      -0.00476755       0.02731003      -0.00775569
Mg       7.97781102      10.13127320       7.69985705      -0.00916083      -0.01561709      -0.01254810
Mg      15.93701259       0.00016293      10.26602997       0.03965568      -0.01813871       0.00693032
Mg      -0.00613241       1.84082496      12.81898153       0.01383229      -0.00331793       0.03471075
Mg      -3.18458568      11.03803997      10.26759368      -0.02880433       0.03149534      -0.00314984
Mg       3.19026434       1.84573126      12.82810754      -0.01408084      -0.00242566       0.00278179
Mg      -0.00008074      11.03842990      10.26884388       0.01459445       0.02898502      -0.01174639
Mg       6.37561975       1.84763967      12.83538806       0.01974442      -0.01021610      -0.00572212
Mg       9.56723094       0.00227370      10.26624971      -0.00987679       0.00210181      -0.00116340
Mg       9.57329399       1.83440140      12.82843414      -0.02530411       0.02350088       0.01454519
Mg      12.76281390       0.00333357      10.26040586      -0.02041314      -0.00260702       0.02447964
Mg      12.74704795       1.84720777      12.83544596       0.02379731      -0.01520812      -0.01537511
Mg      -1.58915130       2.76501501      10.25839930      -0.03007210      -0.00315447       0.01605949
Mg      -1.59699091       4.60150796      12.82901204      -0.00349579       0.00008529       0.01028446
Mg       1.59088315       2.76656575      10.26219192       0.02204956      -0.01797021       0.01614710
Mg       1.59284171       4.60512607      12.83264745       0.01938908      -0.01327151      -0.00314277
Mg       4.78702519       2.76008684      10.27115056      -0.00767266       0.00674206      -0.01444505
Mg       4.78663085       4.60874838      12.84335919      -0.00494663       0.00575234      -0.03720640
Mg       7.96941271       2.77122031      10.26843705       0.00275554      -0.03269412      -0.01647039
Mg       7.98307218       4.60189302      12.82823889      -0.02687292       0.00830171       0.01727500
Mg      11.16150291       2.75996092      10.26685009       0.00740846       0.01242558      -0.00491587
Mg      11.16416423       4.61108582      12.82950063      -0.00014541      -0.01847414       0.00964581
Mg      -3.18996371       5.52843972      10.25653886       0.00746878      -0.02180744       0.01728173
Mg      -3.18417724       7.36505893      12.83157726      -0.00051847      -0.00082550       0.02250354
Mg       0.00021399       5.52210916      10.27553725      -0.00902471       0.01351989      -0.03984196
Mg       0.00216481       7.35876725      12.83460936      -0.00133418       0.01918893      -0.00366343
Mg       3.18560875       5.53462481      10.26196033       0.01588561      -0.03520550       0.01229444
Mg       3.18796405       7.36481382      12.83130286      -0.00632326       0.00085394       0.00073272
Mg       6.38270217       5.52287774      10.25619856      -0.02410808       0.01438912       0.03424161
Mg       6.37466483       7.37345078      12.82532828       0.01386172      -0.03054662       0.01677976
Mg       9.56787843       5.52175779      10.27330880       0.00776530       0.01174061      -0.04496051
Mg       9.56664039       7.36118455      12.83446539      -0.00219347       0.02050855      -0.00966184
Mg      -4.76916477       8.28190991      10.27327123      -0.05312167       0.01106099      -0.01524585
Mg      -4.77323483      10.12019806      12.84322954      -0.03106836       0.02263788      -0.02686871
Mg      -1.59472349       8.28817597      10.27628870       0.01648814      -0.02651304      -0.03030351
Mg      -1.58971095      10.13300322      12.81831031      -0.00986856      -0.00866203       0.05207678
Mg       1.59757728       8.28839203      10.25943345      -0.00629055      -0.00943553       0.01537421
Mg       1.58538118      10.11769725      12.83695654       0.02342342       0.01660080      -0.01882836
Mg       4.78488073       8.29368371      10.26676725      -0.00837432      -0.01543455      -0.01085189
Mg       4.78225165      10.12157759      12.83988085       0.00047464       0.01779955      -0.01803149
Mg       7.96698098       8.28429397      10.26032749       0.03475800      -0.00327469       0.00406729
Mg       7.97089690      10.12153849      12.82876536       0.00760361       0.01264147       0.00858979
120
Lattice="15.9435 0.0 0.0 -6.3774 11.04598082 0.0 0.0 0.0 15.3984" Properties=species:S:1:pos:R:3:forces:R:3 energy=-180.46652101 stress="-0.0012479596219558068 0.00039046259437216726 1.95998990325549e-06 0.00039046259437216726 0.001616633270248753 -3.266674804795654e-06 1.95998990325549e-06 -3.266674804795654e-06 -0.0008964610276754828" free_energy=-180.46558091 pbc="T T T"
Mg       9.55201886      11.04243782      15.39667384       0.03790421       0.00584558       0.00341399
Mg      -0.01367503       1.84500101       2.57501361       0.05838584      -0.02656437      -0.02071536
Mg      -3.19891462      11.04281162      15.39477845       0.03336600       0.00956192       0.02225318
Mg       3.18063339       1.84098613       2.57783737       0.00673005       0.00128013      -0.05370376
Mg       0.00669704      11.03522292       0.00028687      -0.03692026       0.04486396       0.00894533
Mg       6.37605631       1.82811888       2.57984809      -0.00941510       0.00832761      -0.04453988
Mg       9.56125614       0.01531039      15.39060394       0.01399934      -0.03906628       0.00780575
Mg       9.56149080       1.82768997       2.55470019       0.01306534       0.04501694       0.05204790
Mg      12.76143773       0.00264419      15.39755062      -0.02452851      -0.04375621       0.00150559
Mg      12.77454095       1.82934112       2.57763442      -0.06597744       0.02880397      -0.05225652
Mg      14.34622858       2.73951856       0.00737922       0.02056031       0.07780155      -0.02088922
Mg      -1.58822008       4.60687354       2.59194492      -0.01396662       0.00359702      -0.11591541
Mg       1.59429560       2.75460671       0.00399989      -0.01063032      -0.00586102      -0.02476113
Mg       1.58829252       4.61615029       2.55047764       0.01717592      -0.03261162       0.04622033
Mg       4.78032239       2.75233588      15.38513335      -0.00697694      -0.00553184       0.05966019
Mg       4.79050693       4.59150604       2.55831004      -0.03247294       0.01285541      -0.00522602
Mg       7.95561792       2.76768228       0.01237708       0.05029756      -0.02728426      -0.03782944
Mg       7.97298738       4.59902946       2.57461787       0.01136160      -0.03697869      -0.01417481
Mg      11.16867356       2.75283007       0.01317949      -0.02673800       0.03202263      -0.02665167
Mg      11.16563403       4.60305683       2.56230377       0.00584767      -0.01323730       0.00624363
Mg      -3.18968282       5.52633138       0.00329403       0.03996358      -0.00679654      -0.00013457
Mg      -3.18804262       7.36563586       2.56857923      -0.00795370      -0.00935636      -0.00732127
Mg       0.02132402       5.51391216      15.38261664      -0.08708400       0.00621342       0.03955948
Mg       0.00141205       7.37050537       2.54165667      -0.01363375      -0.02502868       0.07104898
Mg       3.18764317       5.52525473       0.00961261       0.02247556      -0.01186069      -0.01986851
Mg       3.17417279       7.36655710       2.57363360       0.04167381      -0.00625291      -0.01031117
Mg       6.39454373       5.51152026       0.01061350      -0.03631885       0.03660108      -0.04922478
Mg       6.37813452       7.35290625       2.56128747      -0.04337522       0.03940544       0.00866335
Mg       9.56591579       5.51994349      15.39706557       0.02237600      -0.02125380       0.01135280
Mg       9.54030096       7.32930552       2.58518656       0.07432625       0.09219476      -0.04939541
Mg      11.14175554       8.28491762       0.00646009       0.04091033      -0.01745030       0.02804792
Mg      -4.77736117      10.12417737       2.57953104      -0.04756587      -0.01546806      -0.03861152
Mg      -1.58808838       8.30676790       0.00671817      -0.04507386      -0.06054548      -0.05019104
Mg      -1.59111956      10.10725117       2.57303584       0.00467676       0.06409053      -0.00272005