120
Lattice="15.9435 0.0 -0.11957625 -6.3774 11.04598082 -0.03501436 -0.115488 -0.115488 15.3984" Properties=species:S:1:pos:R:3:forces:R:3 energy=-180.44028764 stress="-0.0013575144473859497 0.0005225094718845619 -0.002172115005811474 0.0005225094718845619 0.0020713913228510893 -0.0021844464240480823 -0.002172115005811474 -0.0021844464240480823 -0.0012464491954718706" free_energy=-180.44262772 pbc="T T T"
Mg       0.00000000       0.00000000       0.00000000       0.00255227      -0.00093917      -0.00041849
Mg      -0.01924797       1.82174884       2.55259257      -0.00423992       0.00054862       0.00003559
Mg       3.18870000       0.00000000      -0.02391525       0.00140761       0.00030437      -0.00217891
Mg       3.16945203       1.82174884       2.52867732       0.00040868       0.00260529       0.00019245
Mg       6.37740000       0.00000000      -0.04783050       0.00691676      -0.00678979      -0.00035879
Mg       6.35815203       1.82174884       2.50476207      -0.00514336      -0.00010798       0.00101023
Mg       9.56610000       0.00000000      -0.07174575      -0.00196986       0.00493946      -0.00050540
Mg       9.54685203       1.82174884       2.48084682      -0.00181025       0.00203582      -0.00046724
Mg      12.75480000       0.00000000      -0.09566100       0.00361515      -0.00226878       0.00135975
Mg      12.73555203       1.82174884       2.45693157      -0.00105120       0.00351666       0.00007129
Mg      -1.59435000       2.76149521      -0.00875359       0.00255384      -0.00094084      -0.00042107
Mg      -1.61359797       4.58324404       2.54383898      -0.00423929       0.00054692       0.00003738
Mg       1.59435000       2.76149521      -0.03266884       0.00140904       0.00030573      -0.00217889
Mg       1.57510203       4.58324404       2.51992373       0.00040923       0.00260465       0.00019340
Mg       4.78305000       2.76149521      -0.05658409       0.00691716      -0.00679093      -0.00036004
Mg       4.76380203       4.58324404       2.49600848      -0.00514425      -0.00010742       0.00100895
Mg       7.97175000       2.76149521      -0.08049934      -0.00196955       0.00493812      -0.00050536
Mg       7.95250203       4.58324404       2.47209323      -0.00181222       0.00203395      -0.00046538
Mg      11.16045000       2.76149521      -0.10441459       0.00361553      -0.00226975       0.00135937
Mg      11.14120203       4.58324404       2.44817798      -0.00105072       0.00351488       0.00007359
Mg      -3.18870000       5.52299041      -0.01750718       0.00255430      -0.00094096      -0.00042007
Mg      -3.20794797       7.34473925       2.53508539      -0.00423927       0.00054612       0.00003696
Mg       0.00000000       5.52299041      -0.04142243       0.00140954       0.00030391      -0.00217859
Mg      -0.01924797       7.34473925       2.51117014       0.00041008       0.00260468       0.00019460
Mg       3.18870000       5.52299041      -0.06533768       0.00691653      -0.00678959      -0.00035902
Mg       3.16945203       7.34473925       2.48725489      -0.00514475      -0.00010815       0.00101003
Mg       6.37740000       5.52299041      -0.08925293      -0.00197157       0.00494043      -0.00050659
Mg       6.35815203       7.34473925       2.46333964      -0.00181239       0.00203404      -0.00046760
Mg       9.56610000       5.52299041      -0.11316818       0.00361478      -0.00226958       0.00135948
Mg       9.54685203       7.34473925       2.43942439      -0.00105129       0.00351613       0.00007306
Mg      -4.78305000       8.28448562      -0.02626077       0.00255308      -0.00094126      -0.00042116
Mg      -4.80229797      10.10623445       2.52633180      -0.00424033       0.00054819       0.00003753
Mg      -1.59435000       8.28448562      -0.05017602       0.00141078       0.00030499      -0.00217837
Mg      -1.61359797      10.10623445       2.50241655       0.00040942       0.00260559       0.00019401
Mg       1.59435000       8.28448562      -0.07409127       0.00691792      -0.00679111      -0.00035686
Mg       1.57510203      10.10623445       2.47850130      -0.00514351      -0.00010725       0.00100893
Mg       4.78305000       8.28448562      -0.09800652      -0.00197099       0.00493952      -0.00050623
Mg       4.76380203      10.10623445       2.45458605      -0.00181132       0.00203520      -0.00046753
Mg       7.97175000       8.28448562      -0.12192177       0.00361488      -0.00226973       0.00135887
Mg       7.95250203      10.10623445       2.43067080      -0.00105054       0.00351646       0.00007239
Mg      -0.03849600      -0.03849600       5.13279995       0.00255281      -0.00093960      -0.00042707
Mg      -0.05774397       1.78325284       7.68539252      -0.00424001       0.00054807       0.00002602
Mg       3.15020400      -0.03849600       5.10888470       0.00140920       0.00030424      -0.00218577
Mg       3.13095603       1.78325284       7.66147727       0.00040915       0.00260610       0.00018518
Mg       6.33890400      -0.03849600       5.08496945       0.00691691      -0.00679105      -0.00036571
Mg       6.31965603       1.78325284       7.63756202      -0.00514393      -0.00010839       0.00100158
Mg       9.52760400      -0.03849600       5.06105420      -0.00197026       0.00493918      -0.00051359
Mg       9.50835603       1.78325284       7.61364677      -0.00180968       0.00203637      -0.00047602
Mg      12.71630400      -0.03849600       5.03713895       0.00361383      -0.00226843       0.00135055
Mg      12.69705603       1.78325284       7.58973152      -0.00105158       0.00351540       0.00006384
Mg      -1.63284600       2.72299921       5.12404636       0.00255183      -0.00093880      -0.00042597
Mg      -1.65209397       4.54474805       7.67663893      -0.00424010       0.00054708       0.00002820
Mg       1.55585400       2.72299921       5.10013111       0.00140860       0.00030530      -0.00218486
Mg       1.53660603       4.54474805       7.65272368       0.00040795       0.00260534       0.00018672
Mg       4.74455400       2.72299921       5.07621586       0.00691780      -0.00679071      -0.00036496
Mg       4.72530603       4.54474805       7.62880843      -0.00514480      -0.00010799       0.00100141
Mg       7.93325400       2.72299921       5.05230061      -0.00196912       0.00493860      -0.00051188
Mg       7.91400603       4.54474805       7.60489318      -0.00181217       0.00203361      -0.00047521
Mg      11.12195400       2.72299921       5.02838536       0.00361635      -0.00227063       0.00135221
Mg      11.10270603       4.54474805       7.58097793      -0.00105175       0.00351420       0.00006225
Mg      -3.22719600       5.48449441       5.11529277       0.00255330      -0.00093987      -0.00042656
Mg      -3.24644397       7.30624325       7.66788534      -0.00423902       0.00054744       0.00002790
Mg      -0.03849600       5.48449441       5.09137752       0.00140844       0.00030482      -0.00218467
Mg      -0.05774397       7.30624325       7.64397009       0.00040981       0.00260515       0.00018542
Mg       3.15020400       5.48449441       5.06746227       0.00691525      -0.00679061      -0.00036510
Mg       3.13095603       7.30624325       7.62005484      -0.00514349      -0.00010823       0.00100158
Mg       6.33890400       5.48449441       5.04354702      -0.00197042       0.00493894      -0.00051204
Mg       6.31965603       7.30624325       7.59613959      -0.00181024       0.00203457      -0.00047552
Mg       9.52760400       5.48449441       5.01963177       0.00361767      -0.00226824       0.00135252
Mg       9.50835603       7.30624325       7.57222434      -0.00105155       0.00351717       0.00006419
Mg      -4.82154600       8.24598962       5.10653918       0.00255405      -0.00094087      -0.00042697
Mg      -4.84079397      10.06773846       7.65913175      -0.00423838       0.00054804       0.00002797
Mg      -1.63284600       8.24598962       5.08262393       0.00141125       0.00030328      -0.00218448
Mg      -1.65209397      10.06773846       7.63521650       0.00040959       0.00260534       0.00018529
Mg       1.55585400       8.24598962       5.05870868       0.00691740      -0.00678903      -0.00036398
Mg       1.53660603      10.06773846       7.61130125      -0.00514386      -0.00010780       0.00100043
Mg       4.74455400       8.24598962       5.03479343      -0.00197100       0.00493973      -0.00051409
Mg       4.72530603      10.06773846       7.58738600      -0.00181127       0.00203452      -0.00047546
Mg       7.93325400       8.24598962       5.01087818       0.00361340      -0.00226866       0.00135199
Mg       7.91400603      10.06773846       7.56347075      -0.00105117       0.00351577       0.00006243
Mg      -0.07699200      -0.07699200      10.26560005       0.00255362      -0.00094163      -0.00042769
Mg      -0.09623997       1.74475684      12.81819247      -0.00423946       0.00054896       0.00003673
Mg       3.11170800      -0.07699200      10.24168480       0.00141090       0.00030452      -0.00218783
Mg       3.09246003       1.74475684      12.79427722       0.00040829       0.00260424       0.00019256
Mg       6.30040800      -0.07699200      10.21776955       0.00691762      -0.00679107      -0.00036745
Mg       6.28116003       1.74475684      12.77036197      -0.00514357      -0.00010775       0.00100826
Mg       9.48910800      -0.07699200      10.19385430      -0.00196933       0.00493811      -0.00051403
Mg       9.46986003       1.74475684      12.74644672      -0.00181047       0.00203615      -0.00046972
Mg      12.67780800      -0.07699200      10.16993905       0.00361571      -0.00226963       0.00135014
Mg      12.65856003       1.74475684      12.72253147      -0.00105172       0.00351696       0.00007164
Mg      -1.67134200       2.68450320      10.25684646       0.00255290      -0.00093979      -0.00042777
Mg      -1.69058997       4.50625205      12.80943888      -0.00423897       0.00054776       0.00003423
Mg       1.51735800       2.68450320      10.23293121       0.00141017       0.00030384      -0.00218725
Mg       1.49811003       4.50625205      12.78552363       0.00040756       0.00260548       0.00019216
Mg       4.70605800       2.68450320      10.20901596       0.00691708      -0.00679013      -0.00036652
Mg       4.68681003       4.50625205      12.76160838      -0.00514479      -0.00010703       0.00100711
Mg       7.89475800       2.68450320      10.18510071      -0.00196999       0.00493847      -0.00051603
Mg       7.87551003       4.50625205      12.73769313      -0.00181085       0.00203491      -0.00047002
Mg      11.08345800       2.68450320      10.16118546       0.00361637      -0.00226972       0.00134952
Mg      11.06421003       4.50625205      12.71377788      -0.00105012       0.00351544       0.00006992
Mg      -3.26569200       5.44599841      10.24809287       0.00255327      -0.00094003      -0.00042769
Mg      -3.28493997       7.26774725      12.80068529      -0.00423941       0.00054693       0.00003389
Mg      -0.07699200       5.44599841      10.22417762       0.00140943       0.00030510      -0.00218631
Mg      -0.09623997       7.26774725      12.77677004       0.00040903       0.00260581       0.00019248
Mg       3.11170800       5.44599841      10.20026237       0.00691587      -0.00679056      -0.00036660
Mg       3.09246003       7.26774725      12.75285479      -0.00514467      -0.00010751       0.00100934
Mg       6.30040800       5.44599841      10.17634712      -0.00197000       0.00493884      -0.00051460
Mg       6.28116003       7.26774725      12.72893954      -0.00181119       0.00203599      -0.00046951
Mg       9.48910800       5.44599841      10.15243187       0.00361636      -0.00227020       0.00135028
Mg       9.46986003       7.26774725      12.70502429      -0.00105015       0.00351532       0.00006974
Mg      -4.86004200       8.20749361      10.23933928       0.00255369      -0.00094099      -0.00042841
Mg      -4.87928997      10.02924246      12.79193170      -0.00424101       0.00054816       0.00003391
Mg      -1.67134200       8.20749361      10.21542403       0.00141023       0.00030510      -0.00218721
Mg      -1.69058997      10.02924246      12.76801645       0.00040819       0.00260524       0.00019176
Mg       1.51735800       8.20749361      10.19150878       0.00691689      -0.00679189      -0.00036703
Mg       1.49811003      10.02924246      12.74410120      -0.00514330      -0.00010880       0.00100838
Mg       4.70605800       8.20749361      10.16759353      -0.00196972       0.00493938      -0.00051472
Mg       4.68681003      10.02924246      12.72018595      -0.00181156       0.00203582      -0.00046922
Mg       7.89475800       8.20749361      10.14367828       0.00361617      -0.00227065       0.00135118
Mg       7.87551003      10.02924246      12.69627070      -0.00105043       0.00351712       0.00006977
120
Lattice="15.9435 0.0 -0.11957625 -6.3774 11.04598082 -0.03501436 -0.115488 -0.115488 15.3984" Properties=species:S:1:pos:R:3:forces:R:3 energy=-180.42481614 stress="-0.0013921081739953949 0.0005763909471721584 -0.0021592201166139996 0.0005763909471721584 0.00205247850162613 -0.0021613013415905167 -0.0021592201166139996 -0.0021613013415905167 -0.0012713593642272177" free_energy=-180.4271545 pbc="T T T"
Mg       0.00510344       0.00200650       0.00128711      -0.01503347      -0.01267722      -0.01651083
Mg      -0.02608209       1.81673596       2.55179735       0.01744940       0.02801000      -0.00026103
Mg      -3.19279544      11.04419453      -0.05406449       0.01989469       0.00469775      -0.00650997
Mg       3.17329780       1.83074591       2.52024432      -0.00273169      -0.00619108       0.01708484
Mg       6.38105975       0.00152822      -0.04745847      -0.01013980      -0.00269202       0.00364702
Mg       6.36235578       1.81918726       2.50654870      -0.00568995       0.00891631      -0.00861210
Mg       9.45113838      -0.10957366      15.32441346       0.00220748      -0.01821532      -0.00189041
Mg       9.55605108       1.82133615       2.47356713      -0.02041004       0.01679758       0.01558770
Mg       6.27172977      10.92690303      15.26201688      -0.02238002       0.00955515       0.01322481
Mg      12.74900666       1.82888376       2.46253689      -0.04473541      -0.01059091      -0.00991536
Mg      -1.59631593       2.76606496      -0.00484512       0.02278231      -0.00651922      -0.02064079
Mg      -1.61537478       4.58360051       2.54348042      -0.00014158       0.00432464      -0.00397877
Mg       1.60710094       2.75952291      -0.03084557      -0.04109724       0.00379351      -0.00779564
Mg       1.56614293       4.58183026       2.51926680       0.01598849       0.00148424      -0.00116185
Mg       4.78394067       2.77044384      -0.05457579       0.00626864      -0.03489639      -0.00483045
Mg       4.76731104       4.59330175       2.49793786      -0.01782095      -0.02412446      -0.00045357
Mg       7.85725219       2.65079284      15.31170606       0.00088429      -0.01092124       0.01380578
Mg       7.94282678       4.59254462       2.47000841       0.02148187      -0.03407566      -0.00052981
Mg      11.16558157       2.75805280      -0.10134408       0.00020288       0.01443793      -0.00851303
Mg      11.13166253       4.58508000       2.45090092       0.01491870      -0.01199406      -0.01108419
Mg      -3.18770721       5.52594168      -0.00993897      -0.00676038      -0.00458055      -0.01060901
Mg      -3.21684148       7.34203538       2.54413000       0.00964825       0.02101015      -0.02873585
Mg      -0.10958313       5.41734763      15.34598509      -0.01125049      -0.03503996       0.01791965
Mg      -0.01979680       7.33961526       2.50163843      -0.01422350       0.01706204       0.01554633
Mg       3.18431961       5.51699746      -0.06229156       0.01654654       0.02056189      -0.00496283
Mg       3.16751239       7.33522051       2.49375770      -0.00529599       0.02055024      -0.02378673
Mg       6.25937265       5.39783754      15.30307870      -0.00933135       0.02831547      -0.00641670
Mg       6.36032706       7.33703471       2.45990193      -0.01063003       0.03690139       0.02012613
Mg       9.44674427       5.40542492      15.28136920       0.01905480      -0.00034366       0.00238975
Mg       9.54689097       7.33991275       2.43898408      -0.00696524       0.02996994       0.00104735
Mg      11.04207674       8.16930849      15.24756959       0.00763279      -0.00691059       0.02187614
Mg      -4.80586314      10.11611982       2.52771460      -0.00058531      -0.03238574      -0.01351114
Mg      -1.71622756       8.16809259      15.34134634       0.01397776       0.01001520       0.02943481
Mg      -1.61540599      10.10920158       2.50449072       0.00976480      -0.01192340      -0.01904208
Mg       1.47642472       8.17178441      15.32183156       0.01657409      -0.00801602       0.00865255
Mg       1.57350972      10.10221800       2.47782496      -0.00386585       0.00207009       0.01267934
Mg       4.66518299       8.16445536      15.29975839      -0.00124569       0.01033885       0.00670382
Mg       4.75880452      10.11043464       2.45203634       0.01759185      -0.01485638       0.00114544
Mg       7.96848228       8.27050430      -0.12014650       0.01146823       0.03406543      -0.00926080
Mg       7.94676992      10.11551958       2.42556526       0.00820231      -0.03630569       0.00790503
Mg      -0.02974600      -0.03518817       5.13022111      -0.02215566      -0.00233916       0.00536675
Mg      -0.06845975       1.78089440       7.67935085       0.02884096       0.00846345       0.02391649
Mg      -3.22099863      11.00261803       5.05824167      -0.01232792       0.02411774       0.04871031
Mg       3.12875373       1.77602962       7.67056425      -0.00642579       0.01681390      -0.03826495
Mg       6.33469851      -0.03595164       5.09387256       0.02232093      -0.02920253      -0.01911480
Mg       6.31621600       1.77562899       7.63445250       0.00099156       0.02235130       0.02767649
Mg       9.52454630      -0.03279483       5.05598242       0.00360665      -0.01822805       0.01564727
Mg       9.50851967       1.79212506       7.61565848       0.00229900      -0.01655886      -0.00455850
Mg       6.33890473      11.00711065       5.00323764      -0.00099942       0.00641357       0.00201179
Mg      12.70991513       1.79425130       7.59839105      -0.03882092      -0.04158525      -0.01695070
Mg      -1.63309037       2.72690821       5.13303840       0.01017932      -0.00793594      -0.02592654
Mg      -1.65839083       4.54362899       7.67642773       0.01944270       0.01663729       0.00541456
Mg       1.55565956       2.71679872       5.09170213       0.01378532       0.01292835       0.02761028
Mg       1.53500662       4.54598091       7.66010097       0.00664753      -0.00651142      -0.02902468
Mg       4.75152783       2.72514473       5.07491712      -0.01995384      -0.01820753       0.00522491
Mg       4.72688801       4.53700749       7.63586026      -0.01668992       0.01314754       0.00117256
Mg       7.93500747       2.71985046       5.05001081       0.00598759       0.00706897      -0.00383928
Mg       7.91189941       4.55094716       7.60147568       0.01080909      -0.01687732       0.01179771
Mg      11.12663619       2.72369590       5.03499838       0.00033663      -0.01302105      -0.01888402
Mg      11.10650985       4.54150967       7.57455651      -0.01366375       0.04070369       0.02679719
Mg      -3.22237379       5.48659423       5.10655559      -0.00883158       0.00020780       0.02292235
Mg      -3.23695110       7.30846388       7.66310690      -0.04389016      -0.00209297       0.00967375
Mg      -0.03689222       5.48182630       5.08838962      -0.00152030       0.00840806       0.01010308
Mg      -0.05945517       7.30475991       7.64758394       0.00203261       0.00771015      -0.01606863
Mg       3.15552037       5.47972029       5.07121961      -0.00877720      -0.02018426       0.00125309
Mg       3.13193815       7.31056177       7.61153445      -0.00111027      -0.01729536       0.02947985
Mg       6.34169274       5.47462187       5.04876527       0.00107013       0.03757736      -0.00877334
Mg       6.32752434       7.29677041       7.59898292      -0.02702115       0.02448393      -0.01248126
Mg       9.53029679       5.47612600       5.01643180      -0.00765919       0.03025390       0.01236159
Mg       9.50790627       7.31034923       7.57457247       0.01001602      -0.01941199      -0.00644811
Mg      11.11325346       8.25084195       4.98574759       0.01642867      -0.01137927       0.01490838
Mg      -4.84938011      10.07514927       7.66864524       0.01632403      -0.02098222      -0.02561603
Mg      -1.63767501       8.25037462       5.07943584       0.02788063      -0.01963282      -0.00039924
Mg      -1.66242559      10.06430859       7.63674545       0.01400007       0.00419490      -0.00180137
Mg       1.56042454       8.23209877       5.06021786      -0.02267008       0.04144328      -0.00375307
Mg       1.53815087      10.07217097       7.61669283      -0.00588708      -0.01279587      -0.03305696
Mg       4.73737300       8.23908491       5.03458621       0.03151659       0.02339558      -0.00299726
Mg       4.72719755      10.06913693       7.59155153      -0.00546566       0.00549730      -0.01840299
Mg       7.93603379       8.25731466       5.01181275      -0.00923705      -0.04092476      -0.01633376
Mg       7.91115991      10.05971740       7.55676541       0.00248426       0.03077844       0.03042349
Mg      -6.44667014      10.96634093      10.23965646      -0.02367484       0.00476150      -0.02528859
Mg      -0.09251823       1.74370899      12.81991409      -0.01887922       0.00925317       0.01140341
Mg       3.11364034      -0.07350812      10.24195673       0.00412752      -0.02128215       0.00461173
Mg       3.08774686       1.72967954      12.79208105       0.00628281       0.03761656       0.00834308
Mg      -0.07103592      10.95815948      10.17666140      -0.01735116       0.04200091       0.03217736
Mg       6.27131974       1.75011872      12.77526291       0.02175502      -0.01652624      -0.02443032
Mg       9.48430796      -0.07658623      10.19177391       0.01512075       0.01427865       0.00540202
Mg       9.46882660       1.74087285      12.74705821      -0.00338227       0.02103162      -0.00958447
Mg       6.29747921      10.96744548      10.13489819       0.01648593       0.00122647      -0.00525377
Mg      12.65160266       1.74364065      12.72048499       0.02045262       0.01357655       0.00929170
Mg      -1.66455144       2.68270927      10.26239921      -0.00054469      -0.00112097       0.00477336
Mg      -1.68980278       4.51672596      12.81225469       0.00926806      -0.04213985      -0.00128868
Mg       1.51432601       2.69148212      10.22710507       0.01365754      -0.02844890       0.00712022
Mg       1.50761652       4.49746718      12.78344198      -0.02003054       0.01088055       0.00396072
Mg       4.70142388       2.69273758      10.21575841       0.01971340      -0.03246157      -0.01399791
Mg       4.68214195       4.50730772      12.75372651       0.00056683       0.00408274       0.03219913
Mg       7.89882028       2.69812368      10.18386199      -0.02538840      -0.03753100      -0.00361740
Mg       7.87600465       4.50805898      12.73730296      -0.00544677       0.00579012       0.00123140
Mg      11.09355360       2.68423936      10.15789505      -0.02184377       0.00437830       0.01306436
Mg      11.06936630       4.51229600      12.71352683      -0.01085580      -0.01420686       0.00465397
Mg      -3.25665787       5.44288645      10.25184466      -0.01925317       0.00455975      -0.02144330
Mg      -3.26974019       7.26287261      12.80020261      -0.04802217       0.01826221       0.00168616
Mg      -0.07031263       5.43993149      10.22313114      -0.01220918       0.01968866       0.00611158
Mg      -0.09476381       7.26452958      12.77320184       0.01475648       0.01666323      -0.00703890
Mg       3.11059278       5.45413236      10.20991133       0.00504418      -0.00987397      -0.03160621
Mg       3.08811458       7.27385155      12.75203712      -0.00180064      -0.01534213       0.00564505
Mg       6.29753981       5.45285614      10.18501355       0.00320669      -0.01896362      -0.02202941
Mg       6.27548804       7.27366106      12.72678635       0.00915046      -0.01290573       0.01524639
Mg       9.48254667       5.44139867      10.16053755       0.03355023       0.01058497      -0.02938232
Mg       9.47338747       7.27447759      12.70138087      -0.01420281      -0.01349802       0.01238111
Mg      11.07354848       8.19998726      10.12349416       0.03845154       0.00499585      -0.01115031
Mg      -4.87577727      10.02406372      12.79286353      -0.01087556       0.00258925       0.00136947
Mg      -1.67398006       8.20256944      10.21913053       0.00074672       0.01225670      -0.00682005
Mg      -1.69330986      10.03101464      12.77306427       0.01554262      -0.00368159      -0.01393434
Mg       1.51737375       8.21230437      10.18599352       0.01135711      -0.02147198       0.01083276
Mg       1.49838988      10.03022778      12.74709268      -0.01705769       0.00231536      -0.00914908
Mg       4.70736182       8.20235420      10.16329922      -0.01235122       0.02339642      -0.00288052
Mg       4.68531055      10.02502218      12.71834969      -0.00743229       0.01447874       0.00353838
Mg       7.88950780       8.20702402      10.14963104       0.01610666       0.00437251      -0.01514500
Mg       7.86689349      10.03096909      12.69284134       0.02732645       0.00239287       0.01308389
120
Lattice="15.9435 0.0 -0.11957625 -6.3774 11.04598082 -0.03501436 -0.115488 -0.115488 15.3984" Properties=species:S:1:pos:R:3:forces:R:3 energy=-180.37788523 stress="-0.001434462967542511 0.0006097101513765892 -0.0021595208574897214 0.0006097101513765892 0.002015094177561975 -0.0021533472809491644 -0.0021595208574897214 -0.0021533472809491644 -0.0013224274293442493" free_energy=-180.38019703 pbc="T T T"
Mg       0.01020100       0.00400786       0.00256768      -0.02929369      -0.02512273      -0.03225750
Mg      -0.03290919       1.81173412       2.55100214       0.03759569       0.05214284      -0.00065683
Mg      -3.19688289      11.04240992      -0.04920191       0.04089617       0.00903109      -0.01556313
Mg       3.17714249       1.83974028       2.51181828      -0.00309697      -0.01650141       0.04183031
Mg       6.38471562       0.00305511      -0.04708471      -0.02728182       0.00225093       0.01001573
Mg       6.36655717       1.81662902       2.50833225      -0.00262130       0.01709666      -0.01597939
Mg       9.45166570      -0.10366672      15.32217195       0.00699681      -0.03691815      -0.00223952
Mg       9.56524195       1.82093003       2.46629375      -0.04262394       0.03032513       0.03621921
Mg       6.28153877      10.92331674      15.25631456      -0.04759289       0.01367793       0.02632841
Mg      12.76244356       1.83601440       2.46813837      -0.08601356      -0.02547624      -0.01736625
Mg      -1.59827281       2.77063190      -0.00094455       0.04277628      -0.00789965      -0.04232754
Mg      -1.61715158       4.58395864       2.54312047       0.00433893       0.00855349      -0.00713543
Mg       1.61983552       2.75755197      -0.02902543      -0.07934645       0.00928248      -0.01941543
Mg       1.55719043       4.58041692       2.51860935       0.03089041       0.00114616       0.00053610
Mg       4.78483395       2.77937836      -0.05256926       0.00782112      -0.06154367      -0.01504051
Mg       4.77081307       4.60334973       2.49986737      -0.03204377      -0.05061425       0.00177492
Mg       7.85824265       2.65557402      15.30551704       0.00420896      -0.02173906       0.03476267
Mg       7.93316018       4.60183162       2.46792362       0.04519549      -0.07032281       0.00096916
Mg      11.17071332       2.75461593      -0.09827668      -0.00416978       0.02653246      -0.01712906
Mg      11.12212895       4.58691102       2.45361955       0.03261473      -0.02591028      -0.02376086
Mg      -3.18671706       5.52889100      -0.00237503      -0.01464008      -0.01072410      -0.02050515
Mg      -3.22573102       7.33933978       2.55316328       0.02390570       0.04245829      -0.05953089
Mg      -0.10368259       5.42717866      15.33499982      -0.01911713      -0.06680755       0.03951338
Mg      -0.02035133       7.33449795       2.49211286      -0.02650345       0.03644853       0.03672151
Mg       3.17994590       5.51101259      -0.05924739       0.02910233       0.04517865      -0.01241052
Mg       3.16557085       7.32570969       2.50025107      -0.00470708       0.04571194      -0.05003645
Mg       6.25682958       5.38818385      15.29700782      -0.01350151       0.04967626      -0.00212329
Mg       6.36249813       7.32934457       2.45647245      -0.01971903       0.07190299       0.03415006
Mg       9.44288415       5.40334720      15.27750760       0.03402830       0.00190865       0.00694979
Mg       9.54692706       7.33509806       2.43854447      -0.01427527       0.05461440       0.00196093
Mg      11.03919473       8.16961632      15.24258514       0.01004742      -0.01402700       0.04017745
Mg      -4.80942856      10.12599219       2.52909226       0.00127600      -0.05715188      -0.02475674
Mg      -1.72261162       8.16719134      15.33448033       0.02825398       0.01865020       0.05623967
Mg      -1.61721029      10.11216379       2.50655751       0.02023114      -0.02569688      -0.03701803