120
Lattice="15.9435 0.0 0.03985875 -6.3774 11.04598082 0.01167145 0.038496 0.038496 15.3984" Properties=species:S:1:pos:R:3:forces:R:3 energy=-180.52432831 stress="-0.0012581121293565691 0.00039655963752782285 0.0007241014098812146 0.00039655963752782285 0.001778293792963578 0.0007445152641188759 0.0007241014098812146 0.0007445152641188759 -0.0009125880886153049" free_energy=-180.52330441 pbc="T T T"
Mg       0.00000000       0.00000000       0.00000000       0.00041465      -0.00125170       0.00020578
Mg       0.00641603       1.84741284       2.57100254      -0.00225000       0.00199146      -0.00120378
Mg       3.18870000       0.00000000       0.00797175      -0.00148841      -0.00103083       0.00133233
Mg       3.19511603       1.84741284       2.57897429       0.00249285       0.00220142      -0.00155565
Mg       6.37740000       0.00000000       0.01594350       0.00388055      -0.00474207      -0.00008590
Mg       6.38381603       1.84741284       2.58694604      -0.00363269       0.00070404      -0.00081758
Mg       9.56610000       0.00000000       0.02391525      -0.00312927       0.00239641       0.00052168
Mg       9.57251603       1.84741284       2.59491779       0.00082580       0.00354107      -0.00075247
Mg      12.75480000       0.00000000       0.03188700       0.00236346      -0.00133866      -0.00097384
Mg      12.76121603       1.84741284       2.60288954       0.00185657       0.00096469       0.00008113
Mg      -1.59435000       2.76149521       0.00291786       0.00041643      -0.00124521       0.00021123
Mg      -1.58793397       4.60890805       2.57392041      -0.00224729       0.00199462      -0.00120257
Mg       1.59435000       2.76149521       0.01088961      -0.00148910      -0.00102745       0.00133393
Mg       1.60076603       4.60890805       2.58189216       0.00249395       0.00220077      -0.00156249
Mg       4.78305000       2.76149521       0.01886136       0.00388030      -0.00474266      -0.00009049
Mg       4.78946603       4.60890805       2.58986391      -0.00363246       0.00070267      -0.00081702
Mg       7.97175000       2.76149521       0.02683311      -0.00312695       0.00239519       0.00052239
Mg       7.97816603       4.60890805       2.59783566       0.00082826       0.00354379      -0.00074718
Mg      11.16045000       2.76149521       0.03480486       0.00236573      -0.00134043      -0.00097279
Mg      11.16686603       4.60890805       2.60580741       0.00185910       0.00095948       0.00008113
Mg      -3.18870000       5.52299041       0.00583572       0.00041298      -0.00124781       0.00021168
Mg      -3.18228397       7.37040325       2.57683827      -0.00225064       0.00198463      -0.00120481
Mg       0.00000000       5.52299041       0.01380747      -0.00148969      -0.00102283       0.00132998
Mg       0.00641603       7.37040325       2.58481002       0.00249101       0.00220285      -0.00156195
Mg       3.18870000       5.52299041       0.02177922       0.00387884      -0.00473861      -0.00008472
Mg       3.19511603       7.37040325       2.59278177      -0.00363604       0.00070083      -0.00081833
Mg       6.37740000       5.52299041       0.02975097      -0.00312621       0.00239772       0.00051944
Mg       6.38381603       7.37040325       2.60075352       0.00082774       0.00354366      -0.00075062
Mg       9.56610000       5.52299041       0.03772272       0.00236546      -0.00133926      -0.00097311
Mg       9.57251603       7.37040325       2.60872527       0.00185964       0.00096051       0.00008138
Mg      -4.78305000       8.28448562       0.00875359       0.00042090      -0.00125277       0.00020755
Mg      -4.77663397      10.13189846       2.57975613      -0.00224842       0.00198736      -0.00120557
Mg      -1.59435000       8.28448562       0.01672534      -0.00148931      -0.00102213       0.00132822
Mg      -1.58793397      10.13189846       2.58772788       0.00249117       0.00220097      -0.00156036
Mg       1.59435000       8.28448562       0.02469709       0.00387516      -0.00473766      -0.00008577
Mg       1.60076603      10.13189846       2.59569963      -0.00363671       0.00070551      -0.00082049
Mg       4.78305000       8.28448562       0.03266884      -0.00312605       0.00239768       0.00052340
Mg       4.78946603      10.13189846       2.60367138       0.00082603       0.00354164      -0.00075648
Mg       7.97175000       8.28448562       0.04064059       0.00236812      -0.00133659      -0.00097527
Mg       7.97816603      10.13189846       2.61164313       0.00185694       0.00096335       0.00007971
Mg       0.01283200       0.01283200       5.13279995       0.00041298      -0.00125645       0.00021909
Mg       0.01924803       1.86024484       7.70380249      -0.00224350       0.00198500      -0.00119168
Mg       3.20153200       0.01283200       5.14077170      -0.00148238      -0.00102815       0.00134681
Mg       3.20794803       1.86024484       7.71177424       0.00249070       0.00219985      -0.00154271
Mg       6.39023200       0.01283200       5.14874345       0.00388119      -0.00474278      -0.00008111
Mg       6.39664803       1.86024484       7.71974599      -0.00363965       0.00070239      -0.00080872
Mg       9.57893200       0.01283200       5.15671520      -0.00312435       0.00239858       0.00052390
Mg       9.58534803       1.86024484       7.72771774       0.00082703       0.00354280      -0.00074222
Mg      12.76763200       0.01283200       5.16468695       0.00236185      -0.00134093      -0.00096802
Mg      12.77404803       1.86024484       7.73568949       0.00186305       0.00096310       0.00009728
Mg      -1.58151800       2.77432720       5.13571781       0.00040856      -0.00125152       0.00021958
Mg      -1.57510197       4.62174005       7.70672035      -0.00224712       0.00199519      -0.00119227
Mg       1.60718200       2.77432720       5.14368956      -0.00149119      -0.00102931       0.00134642
Mg       1.61359803       4.62174005       7.71469210       0.00249172       0.00220139      -0.00154850
Mg       4.79588200       2.77432720       5.15166131       0.00388070      -0.00474341      -0.00007403
Mg       4.80229803       4.62174005       7.72266385      -0.00363710       0.00070017      -0.00080796
Mg       7.98458200       2.77432720       5.15963306      -0.00312713       0.00239338       0.00052756
Mg       7.99099803       4.62174005       7.73063560       0.00083062       0.00354245      -0.00074547
Mg      11.17328200       2.77432720       5.16760481       0.00235653      -0.00133635      -0.00096406
Mg      11.17969803       4.62174005       7.73860735       0.00186191       0.00096218       0.00009426
Mg      -3.17586800       5.53582241       5.13863567       0.00040937      -0.00125507       0.00022341
Mg      -3.16945197       7.38323525       7.70963822      -0.00224659       0.00199142      -0.00119193
Mg       0.01283200       5.53582241       5.14660742      -0.00148991      -0.00102661       0.00134280
Mg       0.01924803       7.38323525       7.71760997       0.00249041       0.00220671      -0.00154112
Mg       3.20153200       5.53582241       5.15457917       0.00388326      -0.00473911      -0.00007721
Mg       3.20794803       7.38323525       7.72558172      -0.00363599       0.00070316      -0.00080609
Mg       6.39023200       5.53582241       5.16255092      -0.00312428       0.00239125       0.00052252
Mg       6.39664803       7.38323525       7.73355347       0.00082783       0.00354103      -0.00074434
Mg       9.57893200       5.53582241       5.17052267       0.00236587      -0.00134301      -0.00096526
Mg       9.58534803       7.38323525       7.74152522       0.00186379       0.00096086       0.00009017
Mg      -4.77021800       8.29731761       5.14155354       0.00042024      -0.00125738       0.00022612
Mg      -4.76380197      10.14473046       7.71255608      -0.00224628       0.00198975      -0.00119344
Mg      -1.58151800       8.29731761       5.14952529      -0.00148745      -0.00102665       0.00134317
Mg      -1.57510197      10.14473046       7.72052783       0.00249251       0.00220029      -0.00154500
Mg       1.60718200       8.29731761       5.15749704       0.00387866      -0.00474022      -0.00007605
Mg       1.61359803      10.14473046       7.72849958      -0.00363998       0.00070348      -0.00080776
Mg       4.79588200       8.29731761       5.16546879      -0.00313050       0.00239598       0.00052746
Mg       4.80229803      10.14473046       7.73647133       0.00082939       0.00354435      -0.00074094
Mg       7.98458200       8.29731761       5.17344054       0.00236403      -0.00134583      -0.00096775
Mg       7.99099803      10.14473046       7.74444308       0.00186651       0.00095968       0.00009289
Mg       0.02566400       0.02566400      10.26560005       0.00041629      -0.00125258       0.00022721
Mg       0.03208003       1.87307684      12.83660244      -0.00224291       0.00198734      -0.00120924
Mg       3.21436400       0.02566400      10.27357180      -0.00148757      -0.00102692       0.00134663
Mg       3.22078003       1.87307684      12.84457419       0.00249284       0.00220112      -0.00156266
Mg       6.40306400       0.02566400      10.28154355       0.00387767      -0.00473779      -0.00007436
Mg       6.40948003       1.87307684      12.85254594      -0.00363768       0.00069576      -0.00081163
Mg       9.59176400       0.02566400      10.28951530      -0.00312944       0.00239905       0.00052930
Mg       9.59818003       1.87307684      12.86051769       0.00082529       0.00354051      -0.00074648
Mg      12.78046400       0.02566400      10.29748705       0.00236906      -0.00133950      -0.00096516
Mg      12.78688003       1.87307684      12.86848944       0.00185962       0.00096087       0.00008038
Mg      -1.56868600       2.78715921      10.26851791       0.00041533      -0.00125060       0.00023032
Mg      -1.56226997       4.63457205      12.83952030      -0.00224887       0.00198725      -0.00120596
Mg       1.62001400       2.78715921      10.27648966      -0.00149020      -0.00102760       0.00135029
Mg       1.62643003       4.63457205      12.84749205       0.00248806       0.00220016      -0.00155680
Mg       4.80871400       2.78715921      10.28446141       0.00387920      -0.00474147      -0.00007203
Mg       4.81513003       4.63457205      12.85546380      -0.00364176       0.00069829      -0.00081498
Mg       7.99741400       2.78715921      10.29243316      -0.00312914       0.00239873       0.00052713
Mg       8.00383003       4.63457205      12.86343555       0.00082718       0.00353729      -0.00074833
Mg      11.18611400       2.78715921      10.30040491       0.00236434      -0.00134301      -0.00096488
Mg      11.19253003       4.63457205      12.87140730       0.00186334       0.00096226       0.00008130
Mg      -3.16303600       5.54865441      10.27143578       0.00041316      -0.00125418       0.00022111
Mg      -3.15661997       7.39606725      12.84243817      -0.00224217       0.00199016      -0.00120715
Mg       0.02566400       5.54865441      10.27940753      -0.00148964      -0.00102717       0.00134786
Mg       0.03208003       7.39606725      12.85040992       0.00249059       0.00219974      -0.00155893
Mg       3.21436400       5.54865441      10.28737928       0.00387843      -0.00474120      -0.00007564
Mg       3.22078003       7.39606725      12.85838167      -0.00363744       0.00070382      -0.00081172
Mg       6.40306400       5.54865441      10.29535103      -0.00312843       0.00239241       0.00052506
Mg       6.40948003       7.39606725      12.86635342       0.00083260       0.00354434      -0.00075051
Mg       9.59176400       5.54865441      10.30332278       0.00237182      -0.00134262      -0.00096711
Mg       9.59818003       7.39606725      12.87432517       0.00186528       0.00095995       0.00008441
Mg      -4.75738600       8.31014962      10.27435364       0.00041570      -0.00125004       0.00022676
Mg      -4.75096997      10.15756246      12.84535603      -0.00224307       0.00198821      -0.00120560
Mg      -1.56868600       8.31014962      10.28232539      -0.00148756      -0.00102355       0.00134503
Mg      -1.56226997      10.15756246      12.85332778       0.00249348       0.00219937      -0.00156379
Mg       1.62001400       8.31014962      10.29029714       0.00387911      -0.00474069      -0.00007347
Mg       1.62643003      10.15756246      12.86129953      -0.00364104       0.00069969      -0.00081322
Mg       4.80871400       8.31014962      10.29826889      -0.00313068       0.00239428       0.00052599
Mg       4.81513003      10.15756246      12.86927128       0.00082745       0.00354575      -0.00074629
Mg       7.99741400       8.31014962      10.30624064       0.00236632      -0.00133839      -0.00096546
Mg       8.00383003      10.15756246      12.87724303       0.00186243       0.00096450       0.00008246
120
Lattice="15.9435 0.0 0.03985875 -6.3774 11.04598082 0.01167145 0.038496 0.038496 15.3984" Properties=species:S:1:pos:R:3:forces:R:3 energy=-180.50762499 stress="-0.0012530307295319136 0.00040664536078093797 0.00071720585301403 0.00040664536078093797 0.001721012080817401 0.0007500218293036773 0.00071720585301403 0.0007500218293036773 -0.0008923170588309711" free_energy=-180.50659458 pbc="T T T"
Mg      15.93926212       0.00064221       0.04744878       0.01974456      -0.00713730      -0.02669326
Mg       0.00738418       1.84565505       2.57310319      -0.00240939       0.00061593       0.00797869
Mg      -3.14643634      11.08342695      15.40901448      -0.02212383      -0.00736478       0.03424330
Mg       3.19541420       1.84964619       2.58086598       0.00248922      -0.00719405      -0.00483225
Mg       6.37818107       0.00474761       0.01677235       0.00741993      -0.00661130      -0.00117764
Mg       6.38603523       1.84992119       2.58847274      -0.01779012       0.00037114       0.00610891
Mg       3.22332160      11.08296225      15.43068263       0.01489367       0.01916137       0.02332864
Mg       9.56472229       1.84699095       2.60208283       0.02223536       0.00585359      -0.02392531
Mg      12.79464373       0.04483248      15.42573741      -0.01574030      -0.02661814       0.01549393
Mg      12.76059430       1.85338770       2.60572018      -0.00032802      -0.02016683       0.00429900
Mg      14.34676502       2.74909982       0.04834091       0.00873588       0.04221466      -0.01222954
Mg      -1.58728546       4.60060813       2.58310694       0.00580934       0.01463873      -0.03231952
Mg       1.59557397       2.75498711       0.01603511      -0.00984097       0.01748868      -0.01419183
Mg       1.60341198       4.61150558       2.58635442      -0.00571567      -0.00384376      -0.00351405
Mg       4.78204284       2.76276815       0.02102855       0.01404350      -0.00263870       0.00196383
Mg       4.78588648       4.61745124       2.58334132       0.01075546      -0.03268636       0.02682343
Mg       7.97310383       2.76168616       0.02691427      -0.01015535       0.01125358       0.00482466
Mg       7.97573186       4.61390358       2.59571803       0.00749179      -0.01744386       0.00683234
Mg      11.19723590       2.80850121      15.43179306       0.00578259      -0.03223290       0.01893876
Mg      11.17525181       4.60224332       2.61274013      -0.02295040       0.02403443      -0.01857350
Mg      -3.14778043       5.56563493      15.39659894       0.00669915      -0.02615255       0.02742761
Mg      -3.17381215       7.36473389       2.57330646      -0.02464411       0.00747029      -0.00299455
Mg       0.00390807       5.52438308       0.02393566      -0.00585431      -0.01691561      -0.01521293
Mg       0.00818627       7.37288605       2.59100519       0.00403406      -0.00227992      -0.00403254
Mg       3.19305391       5.51533529       0.02878332      -0.02452245       0.01337734      -0.03558385
Mg       3.19673397       7.37506275       2.57864743      -0.01568260       0.00261246       0.04566167
Mg       6.37740036       5.53341166       0.03676966       0.00750729      -0.03218644      -0.02964517
Mg       6.37540839       7.35859176       2.60268241       0.01541699       0.05514175      -0.00870466
Mg       9.56891157       5.51624777       0.04413980      -0.00374913       0.02457264      -0.00868317
Mg       9.56209860       7.36401230       2.61722417       0.02992345       0.01285332      -0.01467513
Mg      11.15619691       8.28255373       0.05034426       0.01710133       0.00167085      -0.00809569
Mg      -4.77816139      10.11980449       2.58318975       0.00312126       0.03405326      -0.01141880
Mg      -1.58599691       8.28168595       0.02206053      -0.02236927      -0.00028365      -0.01794332
Mg      -1.58627414      10.13455710       2.56696865      -0.00582677      -0.00267005       0.05226390
Mg       1.59040433       8.29804322       0.03160874       0.00906222      -0.04533721      -0.02097963
Mg       1.60005027      10.12836485       2.60072730      -0.00004459       0.01790682      -0.00708425
Mg       4.82187999       8.31447915      15.42860210       0.00381597       0.04174913       0.00552589
Mg       4.78724091      10.14459094       2.60806571       0.00780578      -0.02378314      -0.01589102
Mg       7.97792710       8.28108159       0.04626494      -0.01944755       0.00715478      -0.01079346
Mg       7.97785045      10.13596238       2.60308155      -0.01330940      -0.01181822       0.03255843
Mg       0.01547724       0.01535372       5.14219499      -0.00486895      -0.01959536      -0.02528166
Mg       0.01577937       1.86428375       7.70873150       0.02292551      -0.01587287      -0.00459554
Mg       3.20708110       0.01442964       5.13683592      -0.01000114      -0.00615334      -0.00623520
Mg       3.21132707       1.85626813       7.70592097      -0.02135105       0.01483607       0.00018658
Mg       0.01621018      11.04376801       5.16345044      -0.01508411       0.04128547      -0.01904798
Mg       6.39507933       1.85999794       7.71496093       0.00995046       0.00106187      -0.00000578
Mg       9.57395049       0.01674311       5.16513257       0.01200923      -0.01569936      -0.02956671
Mg       9.58270662       1.85863116       7.70673028       0.00766115       0.02176408       0.06405754
Mg       6.38592818      11.05290168       5.18163724       0.01984134       0.01963475      -0.01644750
Mg      12.77486615       1.85848034       7.73417795      -0.00696450       0.00606155       0.00858853
Mg      -1.57979705       2.77410569       5.14679564      -0.00412641      -0.01236710      -0.02502211
Mg      -1.57585537       4.61247750       7.70963760       0.00265535       0.03936037      -0.01067043
Mg       1.59660125       2.77263134       5.14203574       0.02404582       0.00969004       0.01039785
Mg       1.61415979       4.63095282       7.70954059      -0.00404903      -0.02319534       0.00142012
Mg       4.79035791       2.77125187       5.15582874       0.02195055       0.00772678      -0.02171173
Mg       4.79818379       4.63218994       7.72252987       0.01856311      -0.01632786      -0.00265152
Mg       7.98668180       2.77533496       5.15311476      -0.02728026       0.00530313       0.00684964
Mg       7.99521318       4.61706897       7.72186334      -0.01891490       0.00729234       0.02632677
Mg      11.17721641       2.77043584       5.16734915      -0.00058211       0.01028648      -0.00113011
Mg      11.18265703       4.62500342       7.73489223      -0.00447718      -0.01312369       0.00476828
Mg      -3.16665384       5.53446193       5.13222733      -0.02352501       0.00374630       0.02523021
Mg      -3.17042557       7.38320658       7.70877033       0.01141572      -0.00344132      -0.00368005
Mg       0.00186968       5.54232435       5.14100534       0.03586809      -0.01173695       0.02528477
Mg       0.01975446       7.38519127       7.71792270      -0.00991858       0.00041384      -0.00195431
Mg       3.20699255       5.53096515       5.14945046      -0.02187864       0.02318471      -0.00146407
Mg       3.20959498       7.37908122       7.72647378       0.00250957       0.02637339      -0.00801603
Mg       6.38764496       5.54108054       5.16225795       0.00564446      -0.02715097       0.00154567
Mg       6.40104985       7.38413554       7.73053558      -0.00843815       0.00989915       0.01363941
Mg       9.58088440       5.53461590       5.16974447       0.00235415       0.00008714      -0.00337079
Mg       9.58714154       7.37648792       7.73369054      -0.00903053       0.02279892       0.00558517
Mg      -4.76380013       8.29827844       5.13575916      -0.02272254      -0.01332744       0.01183814
Mg      -4.75585123      10.13534417       7.71208254      -0.01975688       0.02047883      -0.00122028
Mg      -1.58947168       8.29924964       5.14755528       0.01662289      -0.00092948      -0.00329312
Mg      -1.57635648      10.14462771       7.71795401       0.01756383      -0.00046681       0.00669668
Mg       1.60480342       8.30437273       5.16128175       0.02369016      -0.04602130      -0.00931550
Mg       1.62067685      10.14583328       7.72568984      -0.01606273      -0.00218500       0.02287575
Mg       4.80510491       8.29876295       5.15960795      -0.05171829       0.00568406       0.01604395
Mg       4.80140901      10.15588089       7.73816091       0.01582209      -0.03557416       0.00659174
Mg       7.97144237       8.29820920       5.17025390       0.04756587       0.00552495       0.00153208
Mg       7.99895217      10.14576211       7.74290432      -0.01608629      -0.00943958       0.00666450
Mg       9.59118473      11.06868454      10.31497243      -0.00103704      -0.00135880       0.00487633
Mg       0.02755400       1.87636891      12.83281417       0.00275285      -0.01321510       0.01239636
Mg       3.20532805       0.02565015      10.26707977       0.03286594      -0.00922055       0.02221417
Mg       3.22679810       1.86643546      12.85367898      -0.00599715       0.03397264      -0.03890078
Mg       0.03484178      11.07077423      10.29338960      -0.02851532       0.01156077       0.00385361
Mg       6.40612397       1.87358984      12.86098660       0.00253596       0.00490044      -0.03250018
Mg       9.60070113       0.03314489      10.28955619      -0.01522404      -0.01237634       0.00039190
Mg       9.60120461       1.87730288      12.86454027      -0.01258695      -0.00791203      -0.00586439
Mg      12.78913049       0.03272584      10.29930625      -0.01085859      -0.02783164      -0.00555974
Mg      12.78167767       1.87084660      12.86672378       0.01360314       0.01107064       0.00526476
Mg      14.37202442       2.79041528      10.30450903       0.00943127      -0.00949019       0.01272398
Mg      -1.56065052       4.62773028      12.83751918      -0.01721617       0.00997487       0.00852661
Mg       1.62351637       2.78173326      10.27231333      -0.00598730       0.01677131       0.00852036
Mg       1.61714938       4.63459260      12.84067044       0.02979598      -0.01209064       0.02753279
Mg       4.80628290       2.79411479      10.26549074       0.01475856      -0.02414969       0.05348308
Mg       4.81834305       4.63828572      12.85283540      -0.01414277      -0.01510049       0.00698303
Mg       8.00044577       2.78198391      10.29674454      -0.00726585       0.01853395      -0.02129490
Mg       8.00771042       4.63345009      12.86091622      -0.01447893       0.00757900       0.01640388
Mg      11.18993390       2.78656088      10.30184084      -0.01551030       0.01485029      -0.01912517
Mg      11.18528633       4.63310277      12.87724100       0.02379374       0.01540736      -0.02853986
Mg      -3.16058544       5.55128803      10.26187373      -0.00819938      -0.01191371       0.02973127
Mg      -3.15245640       7.38527461      12.84261915      -0.01748353       0.03880763      -0.00432662
Mg       0.02701677       5.55074801      10.28023240      -0.00985139      -0.00408520      -0.01025305
Mg       0.02823591       7.39038329      12.85108117       0.01305196       0.01559523       0.00640951
Mg       3.21046424       5.55173579      10.28812528       0.01072488      -0.00529250      -0.00233776
Mg       3.21356705       7.38788731      12.85893586       0.00187567       0.01903631       0.00759869
Mg       6.40607136       5.55741028      10.30162964      -0.01343954      -0.02448447      -0.02874249
Mg       6.40938131       7.39492597      12.86400501      -0.00038061       0.00649427       0.01632894
Mg       9.58470389       5.55345152      10.30417942       0.01876586      -0.03212875      -0.01120524
Mg       9.59735399       7.39870239      12.87066507       0.00538952      -0.00627036       0.02422320
Mg      11.17769744       8.29401670      10.31630076       0.02201059       0.04102445      -0.00411899
Mg      -4.75542779      10.16973249      12.84498342       0.00790599      -0.04171006      -0.00063827
Mg      -1.56743134       8.31858808      10.28663433      -0.01736791      -0.01566561      -0.00950859
Mg      -1.55876799      10.15573078      12.86299679      -0.00567080      -0.00268229      -0.03089059
Mg       1.61290228       8.31681269      10.28814196       0.02950241      -0.01530190       0.00789344
Mg       1.62732624      10.15839668      12.86502637      -0.00304508      -0.00142771      -0.01409765
Mg       4.81097723       8.31504251      10.30583005      -0.01476641       0.00180956      -0.01974078
Mg       4.81170663      10.15946584      12.87644427       0.00766060      -0.00750123      -0.01376623
Mg       7.99611743       8.30658719      10.30826475       0.00288945       0.01733156      -0.01977361
Mg       7.99928406      10.15036217      12.87709802       0.01029353       0.02089431       0.00690240
120
Lattice="15.9435 0.0 0.03985875 -6.3774 11.04598082 0.01167145 0.038496 0.038496 15.3984" Properties=species:S:1:pos:R:3:forces:R:3 energy=-180.45819829 stress="-0.0012753693403538147 0.00041134228988494806 0.0007162732904110043 0.00041134228988494806 0.001654342165270472 0.0007485206901853202 0.0007162732904110043 0.0007485206901853202 -0.0009509027470637275" free_energy=-180.45714761 pbc="T T T"
Mg      15.93503198       0.00128142       0.05502819       0.03780201      -0.01340497      -0.05337650
Mg       0.00835138       1.84389726       2.57520708      -0.00136018      -0.00342959       0.01809681
Mg      -3.14267748      11.08237392      15.39999944      -0.04278277      -0.01513342       0.06703334
Mg       3.19571329       1.85187655       2.58275581       0.00152903      -0.01496182      -0.01028517
Mg       6.37896517       0.00949246       0.01760074       0.01380090      -0.00359621      -0.00100401
Mg       6.38824742       1.85242955       2.59000172      -0.03201493      -0.00252267       0.01108851
Mg       3.21945300      11.08145511      15.42738799       0.02759346       0.02797764       0.04687446
Mg       9.55693735       1.84657114       2.60923834       0.04290896       0.01161183      -0.05410752
Mg      12.79598522       0.05115827      15.42119393      -0.03437787      -0.04908244       0.02757055
Mg      12.75997256       1.85935427       2.60855265       0.00233886      -0.04839496       0.00698066
Mg      14.34438337       2.73672100       0.05390049       0.01552849       0.07903962      -0.02415715
Mg      -1.58663465       4.59231382       2.59228072       0.01775582       0.02647781      -0.06905428
Mg       1.59679403       2.74848573       0.02117507      -0.02032870       0.03310368      -0.02911698
Mg       1.60605553       4.61410146       2.59081545      -0.01690315      -0.01088099      -0.00743884
Mg       4.78104118       2.76403988       0.02319653       0.02506266      -0.00079126       0.00494363
Mg       4.78231120       4.62598131       2.57682948       0.02176109      -0.06685163       0.05385063
Mg       7.97445364       2.76188132       0.02699728      -0.01819504       0.01893474       0.00869707
Mg       7.97330072       4.61889195       2.59360317       0.01200138      -0.03720212       0.01652363
Mg      11.19552818       2.81699831      15.43038894       0.00813577      -0.05973317       0.03554708
Mg      11.18362864       4.59558797       2.61966562      -0.04796564       0.04558825      -0.03853381
Mg      -3.14535438       5.56977286      15.38897291       0.01382881      -0.04683689       0.05397465
Mg      -3.16535012       7.35906740       2.56977355      -0.04798488       0.00870200      -0.00592734
Mg       0.00781371       5.52576889       0.03405796      -0.00979449      -0.03042440      -0.03462724
Mg       0.00995803       7.37536786       2.59719882       0.00212606      -0.00717221      -0.01143975
Mg       3.19739799       5.50768522       0.03577323      -0.05467236       0.03069088      -0.07659847
Mg       3.19834576       7.37972306       2.56453141      -0.02490631       0.00168553       0.08663970
Mg       6.37740369       5.54381996       0.04377678       0.01628091      -0.07209974      -0.06433153
Mg       6.36700690       7.34680191       2.60460783       0.02839920       0.10588002      -0.01703456
Mg       9.57172157       5.50951474       0.05055351      -0.00832897       0.04316699      -0.01706300
Mg       9.55169311       7.35762631       2.62571711       0.05917294       0.02054620      -0.03180747
Mg      11.15195058       8.28062229       0.05207297       0.03105568       0.00525760      -0.01296241
Mg      -4.77968745      10.10772387       2.58661895       0.01102816       0.05657936      -0.02565059
Mg      -1.57765279       8.27888604       0.02738862      -0.04501578      -0.00013414      -0.03833705
Mg      -1.58461674      10.13721459       2.54623020      -0.01574285      -0.00049636       0.11625104