108
Lattice="11.0196 0.0 0.0 0.0 11.0196 0.0 0.0 0.0 11.0196" Properties=species:S:1:pos:R:3:forces:R:3 energy=-404.69483174 stress="0.03597278313874146 2.1364685737898395e-08 3.3005100257670674e-08 2.1364685737898395e-08 0.03597276558761779 6.482431378142352e-08 3.3005100257670674e-08 6.482431378142352e-08 0.03597278013033406" free_energy=-404.71067551 pbc="T T T"
Cu       0.00000000       0.00000000       0.00000000      -0.00003027      -0.00002896      -0.00001178
Cu       1.83660367       1.83660367       0.00000000      -0.00959751      -0.00960805      -0.00001658
Cu       0.00000000       1.83660367       1.83660367      -0.00001348      -0.00957961      -0.00959667
Cu       1.83660367       0.00000000       1.83660367      -0.00961253      -0.00001436      -0.00960027
Cu       3.67319633       0.00000000       0.00000000       0.01588104      -0.00000485      -0.00003367
Cu       5.50980000       1.83660367       0.00000000       0.00000655      -0.01585550      -0.00001973
Cu       3.67319633       1.83660367       1.83660367       0.00129393      -0.00127631      -0.00126485
Cu       5.50980000       0.00000000       1.83660367       0.00000582       0.00000793      -0.01586489
Cu       7.34640367       0.00000000       0.00000000      -0.01584979      -0.00001994      -0.00002336
Cu       9.18299633       1.83660367       0.00000000       0.00959120      -0.00960629       0.00000782
Cu       7.34640367       1.83660367       1.83660367      -0.00128081      -0.00127387      -0.00129546
Cu       9.18299633       0.00000000       1.83660367       0.00960785      -0.00001614      -0.00962738
Cu       0.00000000       3.67319633       0.00000000      -0.00000658       0.01586651       0.00003308
Cu       1.83660367       5.50980000       0.00000000      -0.01587294       0.00002178       0.00002041
Cu       0.00000000       5.50980000       1.83660367      -0.00000863       0.00000586      -0.01583157
Cu       1.83660367       3.67319633       1.83660367      -0.00129577       0.00132134      -0.00125133
Cu       3.67319633       3.67319633       0.00000000       0.00961849       0.00961089      -0.00000700
Cu       5.50980000       5.50980000       0.00000000       0.00001874       0.00000603       0.00000913
Cu       3.67319633       5.50980000       1.83660367       0.00960339      -0.00000304      -0.00959229
Cu       5.50980000       3.67319633       1.83660367       0.00001007       0.00962037      -0.00960017
Cu       7.34640367       3.67319633       0.00000000      -0.00961480       0.00960367       0.00001645
Cu       9.18299633       5.50980000       0.00000000       0.01585377       0.00003063       0.00003647
Cu       7.34640367       5.50980000       1.83660367      -0.00959230       0.00000418      -0.00961608
Cu       9.18299633       3.67319633       1.83660367       0.00128610       0.00131150      -0.00127159
Cu       0.00000000       7.34640367       0.00000000      -0.00002462      -0.01584316       0.00002172
Cu       1.83660367       9.18299633       0.00000000      -0.00962606       0.00958584      -0.00000497
Cu       0.00000000       9.18299633       1.83660367      -0.00002472       0.00957410      -0.00964070
Cu       1.83660367       7.34640367       1.83660367      -0.00132465      -0.00130775      -0.00129117
Cu       3.67319633       7.34640367       0.00000000       0.00961884      -0.00960760       0.00000432
Cu       5.50980000       9.18299633       0.00000000       0.00001480       0.01584974      -0.00001624
Cu       3.67319633       9.18299633       1.83660367       0.00129894       0.00128169      -0.00131014
Cu       5.50980000       7.34640367       1.83660367       0.00001173      -0.00962597      -0.00964266
Cu       7.34640367       7.34640367       0.00000000      -0.00959389      -0.00958367       0.00000644
Cu       9.18299633       9.18299633       0.00000000       0.00961168       0.00957676      -0.00000527
Cu       7.34640367       9.18299633       1.83660367      -0.00127396       0.00127175      -0.00133317
Cu       9.18299633       7.34640367       1.83660367       0.00131283      -0.00129749      -0.00131827
Cu       0.00000000       0.00000000       3.67319633       0.00000363       0.00000729       0.01586579
Cu       1.83660367       1.83660367       3.67319633      -0.00128671      -0.00126285       0.00132842
Cu       0.00000000       1.83660367       5.50980000       0.00002893      -0.01583662      -0.00000813
Cu       1.83660367       0.00000000       5.50980000      -0.01583892       0.00001487       0.00001855
Cu       3.67319633       0.00000000       3.67319633       0.00961000       0.00001486       0.00963973
Cu       5.50980000       1.83660367       3.67319633      -0.00000154      -0.00960655       0.00962562
Cu       3.67319633       1.83660367       5.50980000       0.00960816      -0.00961096       0.00001515
Cu       5.50980000       0.00000000       5.50980000      -0.00001164       0.00002425       0.00004470
Cu       7.34640367       0.00000000       3.67319633      -0.00961439       0.00002660       0.00960476
Cu       9.18299633       1.83660367       3.67319633       0.00128702      -0.00126627       0.00129336
Cu       7.34640367       1.83660367       5.50980000      -0.00963909      -0.00962557       0.00001025
Cu       9.18299633       0.00000000       5.50980000       0.01584903       0.00001562       0.00001676
Cu       0.00000000       3.67319633       3.67319633       0.00000715       0.00963975       0.00961624
Cu       1.83660367       5.50980000       3.67319633      -0.00962902      -0.00001780       0.00961798
Cu       0.00000000       5.50980000       5.50980000       0.00002083      -0.00000863      -0.00003496
Cu       1.83660367       3.67319633       5.50980000      -0.00961432       0.00961193      -0.00001728
Cu       3.67319633       3.67319633       3.67319633       0.00126823       0.00130539       0.00130710
Cu       5.50980000       5.50980000       3.67319633      -0.00000873      -0.00002402       0.01584072
Cu       3.67319633       5.50980000       5.50980000       0.01582009      -0.00003428      -0.00001957
Cu       5.50980000       3.67319633       5.50980000      -0.00002046       0.01583251      -0.00000988
Cu       7.34640367       3.67319633       3.67319633      -0.00127628       0.00129514       0.00128208
Cu       9.18299633       5.50980000       3.67319633       0.00963793      -0.00000842       0.00958034
Cu       7.34640367       5.50980000       5.50980000      -0.01584146      -0.00000428      -0.00002232
Cu       9.18299633       3.67319633       5.50980000       0.00963387       0.00961116      -0.00002979
Cu       0.00000000       7.34640367       3.67319633       0.00000219      -0.00965000       0.00959701
Cu       1.83660367       9.18299633       3.67319633      -0.00129715       0.00127815       0.00129711
Cu       0.00000000       9.18299633       5.50980000       0.00001201       0.01584484       0.00001645
Cu       1.83660367       7.34640367       5.50980000      -0.00962000      -0.00962945      -0.00000952
Cu       3.67319633       7.34640367       3.67319633       0.00125965      -0.00132039       0.00128826
Cu       5.50980000       9.18299633       3.67319633      -0.00000974       0.00962960       0.00960703
Cu       3.67319633       9.18299633       5.50980000       0.00959738       0.00964464       0.00002965
Cu       5.50980000       7.34640367       5.50980000      -0.00000828      -0.01585780       0.00001565
Cu       7.34640367       7.34640367       3.67319633      -0.00126203      -0.00132159       0.00125996
Cu       9.18299633       9.18299633       3.67319633       0.00130489       0.00127570       0.00126978
Cu       7.34640367       9.18299633       5.50980000      -0.00960690       0.00963032       0.00003980
Cu       9.18299633       7.34640367       5.50980000       0.00962905      -0.00962573      -0.00000526
Cu       0.00000000       0.00000000       7.34640367       0.00001212      -0.00000280      -0.01585262
Cu       1.83660367       1.83660367       7.34640367      -0.00126625      -0.00129949      -0.00131077
Cu       0.00000000       1.83660367       9.18299633       0.00000134      -0.00963438       0.00960422
Cu       1.83660367       0.00000000       9.18299633      -0.00958571      -0.00000115       0.00958189
Cu       3.67319633       0.00000000       7.34640367       0.00962163       0.00001267      -0.00960534
Cu       5.50980000       1.83660367       7.34640367      -0.00001795      -0.00964125      -0.00960630
Cu       3.67319633       1.83660367       9.18299633       0.00131256      -0.00131222       0.00124795
Cu       5.50980000       0.00000000       9.18299633       0.00000211      -0.00000209       0.01582228
Cu       7.34640367       0.00000000       7.34640367      -0.00963603       0.00000276      -0.00958414
Cu       9.18299633       1.83660367       7.34640367       0.00128386      -0.00132123      -0.00130096
Cu       7.34640367       1.83660367       9.18299633      -0.00131002      -0.00132116       0.00128480
Cu       9.18299633       0.00000000       9.18299633       0.00958308      -0.00002448       0.00960971
Cu       0.00000000       3.67319633       7.34640367       0.00002208       0.00961256      -0.00964955
Cu       1.83660367       5.50980000       7.34640367      -0.00960475      -0.00001023      -0.00963874
Cu       0.00000000       5.50980000       9.18299633       0.00000228       0.00002975       0.01586710
Cu       1.83660367       3.67319633       9.18299633      -0.00127132       0.00128253       0.00126832
Cu       3.67319633       3.67319633       7.34640367       0.00128946       0.00126465      -0.00129999
Cu       5.50980000       5.50980000       7.34640367      -0.00001407      -0.00000901      -0.01585165
Cu       3.67319633       5.50980000       9.18299633       0.00961156      -0.00000098       0.00961072
Cu       5.50980000       3.67319633       9.18299633      -0.00001378       0.00958195       0.00961252
Cu       7.34640367       3.67319633       7.34640367      -0.00131352       0.00126404      -0.00129914
Cu       9.18299633       5.50980000       7.34640367       0.00962058       0.00001861      -0.00961861
Cu       7.34640367       5.50980000       9.18299633      -0.00961447       0.00002302       0.00963828
Cu       9.18299633       3.67319633       9.18299633       0.00128782       0.00128396       0.00130351
Cu       0.00000000       7.34640367       7.34640367       0.00000380      -0.00960919      -0.00961694
Cu       1.83660367       9.18299633       7.34640367      -0.00127802       0.00130980      -0.00129273
Cu       0.00000000       9.18299633       9.18299633      -0.00001739       0.00960431       0.00962357
Cu       1.83660367       7.34640367       9.18299633      -0.00129810      -0.00128422       0.00130220
Cu       3.67319633       7.34640367       7.34640367       0.00127397      -0.00127732      -0.00129186
Cu       5.50980000       9.18299633       7.34640367       0.00000596       0.00965001      -0.00959047
Cu       3.67319633       9.18299633       9.18299633       0.00129870       0.00131069       0.00128082
Cu       5.50980000       7.34640367       9.18299633       0.00001608      -0.00957907       0.00962750
Cu       7.34640367       7.34640367       7.34640367      -0.00127866      -0.00127110      -0.00126688
Cu       9.18299633       9.18299633       7.34640367       0.00127340       0.00130305      -0.00126485
Cu       7.34640367       9.18299633       9.18299633      -0.00128213       0.00129893       0.00129493
Cu       9.18299633       7.34640367       9.18299633       0.00127965      -0.00126167       0.00132260
108
Lattice="11.0196 0.0 0.0 0.0 11.0196 0.0 0.0 0.0 11.0196" Properties=species:S:1:pos:R:3:forces:R:3 energy=-404.67642369 stress="0.0362140279646752 4.500377740126865e-07 5.943820348124257e-06 4.500377740126865e-07 0.03621562422439263 -7.643333351029261e-06 5.943820348124257e-06 -7.643333351029261e-06 0.036213432374908365" free_energy=-404.69226745 pbc="T T T"
Cu      11.01649501      11.01652289      11.01720070       0.01291527       0.01597931       0.02136642
Cu       1.83139956       1.83625612      11.01686163       0.00648843       0.00198500       0.02269010
Cu       0.00776155       1.83093916       1.84770537      -0.05013334       0.03881247      -0.08104236
Cu       1.83940298       0.00518263       1.83015489      -0.01708672      -0.04152569       0.01747431
Cu       3.67605889       0.00527101      11.01697822       0.00407897      -0.03540559       0.00642681
Cu       5.50618811       1.83209622      11.01166864       0.00495749       0.01726591       0.02836860
Cu       3.66813205       1.83113498       1.83875018       0.02886330       0.01978504      -0.01272004
Cu       5.52125653       0.00005620       1.83593908      -0.05281922       0.00355032      -0.00559300
Cu       7.34548772       0.00891177      11.01673017      -0.00324786      -0.05608829       0.00806399
Cu       9.17711704       1.83347554       0.00192711       0.05693449       0.00794246      -0.00083115
Cu       7.34432174       1.84409270       1.84007948       0.00147590      -0.04546280      -0.02211528
Cu       9.18086095      11.01526687       1.83645623       0.01098390       0.03877993      -0.00522717
Cu      11.01642063       3.67542052      11.01521762       0.01654805       0.00641871       0.03457661
Cu       1.84258357       5.51467772       0.00615996      -0.06028919      -0.02262533      -0.02097424
Cu      11.01602105       5.51209395       1.84366470       0.01671073       0.00742451      -0.04034835
Cu       1.83420184       3.67826810       1.83664445      -0.00403923      -0.02780854       0.00204375
Cu       3.67239355       3.67414038       0.00377487       0.01292266      -0.01262027      -0.01030731
Cu       5.50477209       5.51445402       0.00304306       0.03438790      -0.04532066      -0.01553400
Cu       3.66751947       5.51425335       1.83643089       0.04930007      -0.03198664       0.00123693
Cu       5.51047771       3.66589805       1.84082330      -0.02149673       0.04830380      -0.05103536
Cu       7.34257524       3.67028175      11.01686868      -0.01287531       0.03125426      -0.00235442
Cu       9.18092894       5.51119244      11.01942865       0.00923229      -0.00266709       0.01867999
Cu       7.34893234       5.50766925       1.83878170      -0.03437327       0.00043112      -0.03780535
Cu       9.17996021       3.66609585       1.83199924       0.03231062       0.03270853       0.00157615
Cu      11.01861650       7.35083476       0.00131365       0.01160736      -0.03053966      -0.00194087
Cu       1.83785671       9.18356516       0.00360484       0.00868639       0.01071061      -0.04592168
Cu       0.00013675       9.18062777       1.83290307      -0.00294182       0.02795696       0.01729851
Cu       1.84285068       7.35366526       1.83497476      -0.03620539      -0.04111048       0.00624842
Cu       3.67650088       7.34192630      11.01388579      -0.00253736       0.02364374       0.03615738
Cu       5.51274168       9.18095010       0.00046073       0.00106913       0.03157614       0.01439307
Cu       3.67256457       9.18418358       1.83823369       0.01984301       0.01621218      -0.03455314
Cu       5.50328301       7.34358067       1.83818289       0.03970440       0.00307523      -0.01260054
Cu       7.34173246       7.35301147       0.00064685       0.00742816      -0.03902011      -0.00156556
Cu       9.18490668       9.18115231       0.00636162      -0.02625163       0.01737019      -0.05584576
Cu       7.34681559       9.17905814       1.84090099      -0.01628878       0.01407155      -0.01796366
Cu       9.17827575       7.34677140       1.83426080       0.02672470      -0.01311614       0.02002944
Cu       0.00102471       0.00435891       3.66581154      -0.00825979      -0.03572885       0.06028410
Cu       1.83501608       1.83890633       3.67543198       0.02987104       0.00166504       0.00575272
Cu       0.00691094       1.84364608       5.51333465      -0.02394520      -0.05692196      -0.01180022
Cu       1.83866621      11.01541828       5.50368280      -0.02873965       0.00850221       0.02295940
Cu       3.67377684      11.01448250       3.67411613       0.00972506       0.04607941      -0.00078534
Cu       5.50526301       1.83997479       3.67368989       0.00815949      -0.03772861       0.02041131
Cu       3.66980681       1.83981732       5.51878604       0.02335476      -0.03199375      -0.05742330
Cu       5.51341608       0.00157525       5.51023296      -0.01538639       0.00980675      -0.02390459
Cu       7.34771379       0.00265396       3.66796918      -0.01405026      -0.00561626       0.04194336
Cu       9.18641802       1.84131742       3.67288117      -0.00939534      -0.02299719       0.01052736
Cu       7.34302440       1.83788470       5.50950368       0.00443098      -0.00869735      -0.00766721
Cu       9.18145491       0.00622255       5.50713337       0.04398338      -0.03049013       0.01130412
Cu      11.01501530       3.67916906       3.67477896       0.04561877      -0.01973321      -0.00146456
Cu       1.84738249       5.51008320       3.67368560      -0.05802235       0.00979722       0.00358307
Cu       0.00264658       5.50342990       5.50772082      -0.02034057       0.03525764       0.00171032
Cu       1.84134794       3.67624071       5.51173493      -0.02223816      -0.00820957      -0.03459575
Cu       3.67698927       3.67567728       3.66866253      -0.01830956      -0.01426771       0.03170197
Cu       5.50944462       5.51013863       3.67577943      -0.01356225      -0.00692540       0.01332976
Cu       3.67098965       5.51016034       5.51634498       0.04775039       0.01425884      -0.01801442
Cu       5.50902808       3.67461124       5.51206442       0.00624457       0.02826579      -0.00189786
Cu       7.34512165       3.67104673       3.66726370       0.00680626       0.01935481       0.05870405
Cu       9.18588589       5.50497308       3.67384593      -0.00881126       0.03706415       0.00660828
Cu       7.34766266       5.51715106       5.50376258      -0.02247223      -0.03424151       0.04115476
Cu       9.18498371       3.67362091       5.51282896      -0.02001429       0.01301168      -0.01662429
Cu       0.00137359       7.35202598       3.67498481      -0.01115482      -0.04546923      -0.00746260
Cu       1.83280268       9.18166152       3.66486815       0.00898058       0.01694802       0.03578184
Cu       0.00364991       9.17710822       5.51588238      -0.01577207       0.07214635      -0.02797538
Cu       1.83478599       7.34529697       5.50809648       0.01932614       0.00574365       0.01658386
Cu       3.67390863       7.34616984       3.67316856      -0.00469186       0.00431830       0.02124272
Cu       5.50500802       9.17884183       3.67027503       0.03633902       0.03448716       0.01340556
Cu       3.67016087       9.18673109       5.50962358       0.01655695      -0.02607931       0.00373038
Cu       5.51229263       7.35653399       5.50545365      -0.02919922      -0.05867179       0.03843952
Cu       7.34675674       7.33634091       3.67279301       0.00628415       0.05429094      -0.01024125
Cu       9.18053896       9.18164929       3.67216269       0.02138022       0.01317439       0.02401756
Cu       7.34120947       9.18248579       5.50808943       0.03889895       0.01942153      -0.00944374
Cu       9.18367932       7.34968057       5.51211511      -0.00103606      -0.03342636      -0.02637341
Cu       0.00534958      11.01430651       7.35808555      -0.03751429       0.02692728      -0.10015803
Cu       1.83628135       1.83678880       7.33935014       0.00116815      -0.01345698       0.03603916
Cu      11.01826850       1.83273370       9.18396881      -0.00403869       0.02133229      -0.00249234
Cu       1.83535537       0.00277154       9.17592891       0.02928332      -0.02431375       0.05773687
Cu       3.68108945      11.01375807       7.35241663      -0.03830466       0.04055108      -0.03856836
Cu       5.50628420       1.84028367       7.34473806       0.03310773      -0.03136711       0.01897362
Cu       3.66625133       1.83404437       9.18214605       0.02515521       0.00697536      -0.00000250
Cu       5.50618149      11.01367179       9.18082646       0.02134114       0.02776689       0.02408389
Cu       7.34526954      11.01547977       7.34603330       0.01934171       0.03777524      -0.00634510
Cu       9.17842903       1.83620818       7.34136386       0.03652952      -0.01353534       0.02560214
Cu       7.35043850       1.83394167       9.18337937      -0.02480264       0.01450671      -0.02685954
Cu       9.18872652      11.01631891       9.18490129      -0.03423411       0.00798999      -0.00833791
Cu      11.01872582       3.67242440       7.34906458       0.00436407       0.01643698      -0.00739700
Cu       1.83552100       5.50523182       7.33673596      -0.02380804       0.02384059       0.05589726
Cu      11.01806938       5.51470692       9.18864872       0.03299818      -0.01574406      -0.01247895
Cu       1.83829672       3.66992880       9.18253152      -0.03131625       0.02591036       0.01358631
Cu       3.67105874       3.67251487       7.35001887       0.00595598       0.00315987      -0.01872157
Cu       5.50605411       5.50953465       7.34949610       0.03336400       0.00897530      -0.03533136
Cu       3.67130702       5.50362638       9.17929705       0.00623044       0.02210283       0.02742132
Cu       5.50056084       3.67195552       9.17823421       0.05920598       0.00788395       0.03582502
Cu       7.35047112       3.67273416       7.34614758      -0.03015796       0.01932417       0.00560881
Cu       9.17974334       5.51158088       7.34896474       0.02693602      -0.00452914      -0.03547177
Cu       7.34874104       5.51294312       9.18435130      -0.04905574      -0.03416910       0.00720992
Cu       9.18978440       3.67594594       9.18309495      -0.04406858      -0.02281406      -0.00152476
Cu       0.00003240       7.34528100       7.33923697       0.01857880      -0.01655936       0.05309456
Cu       1.84118000       9.18646827       7.35018428      -0.00090422      -0.03615369      -0.00852488
Cu       0.00643247       9.18761563       9.18391393      -0.03192129      -0.06184539       0.01001911
Cu       1.84114694       7.33776309       9.18313925      -0.03395583       0.04098190      -0.00735146
Cu       3.67319666       7.34167230       7.35345809       0.00465310       0.03188780      -0.05409163
Cu       5.51057633       9.19394463       7.34371125      -0.01389083      -0.06673602      -0.00616685
Cu       3.68172473       9.17495114       9.18669880      -0.05315951       0.04093817      -0.00601951
Cu       5.50903149       7.34797408       9.18220181       0.01900760      -0.02706361       0.00442437
Cu       7.34368073       7.35133847       7.35006571      -0.00846918      -0.03046299      -0.02755949
Cu       9.18463142       9.17407706       7.34855305       0.00400566       0.05547349      -0.01460553
Cu       7.34756349       9.18448177       9.17638765       0.00459233       0.00325088       0.05272152
Cu       9.18063824       7.33933361       9.18354775       0.01947060       0.05712047       0.00848891
108
Lattice="11.0196 0.0 0.0 0.0 11.0196 0.0 0.0 0.0 11.0196" Properties=species:S:1:pos:R:3:forces:R:3 energy=-404.62590393 stress="0.035964401322513675 1.3421110831877644e-05 -1.269254571312242e-05 1.3421110831877644e-05 0.03599857274861566 3.597974109197537e-05 -1.269254571312242e-05 3.597974109197537e-05 0.03599132787944874" free_energy=-404.64174568 pbc="T T T"
Cu      11.01339189      11.01344798      11.01480460       0.03880381       0.04439622       0.04781857
Cu       1.82619632       1.83590867      11.01412667       0.01379925       0.01267059       0.03510036
Cu       0.01551549       1.82528037       1.85879483      -0.09156680       0.08635177      -0.15558011
Cu       1.84219976       0.01035886       1.82370876      -0.02537598      -0.07530677       0.03919919
Cu       3.67892211       0.01053650      11.01435732      -0.01649063      -0.08039993       0.01659031
Cu       5.50257698       1.82759118      11.00374158       0.01458398       0.05371140       0.05776113
Cu       3.66307218       1.82566903       1.84089471       0.05317180       0.04747845      -0.02738572
Cu       5.53270501       0.00011284       1.83527372      -0.11727228       0.00703282      -0.00930436
Cu       7.34457122       0.01781495      11.01386154       0.00246741      -0.12070686       0.02085482
Cu       9.17124635       1.83034840       0.00385411       0.10135040       0.02238996      -0.00074973
Cu       7.34224003       1.85157479       1.84355186       0.01039207      -0.08777598      -0.04490848
Cu       9.17872722      11.01093959       1.83630791       0.00985228       0.06710247      -0.00210629
Cu      11.01324367       3.67764549      11.01084052       0.03776868      -0.01250829       0.07784916
Cu       1.84855432       5.51955191       0.01231672      -0.10470900      -0.04879793      -0.04366912
Cu      11.01244453       5.51438889       1.85071967       0.03937219       0.01254786      -0.07951045
Cu       1.83179935       3.68333546       1.83668544      -0.00907781      -0.05314675       0.00424210
Cu       3.67159275       3.67508244       0.00754810       0.01580842      -0.03113694      -0.01205029
Cu       5.49974924       5.51910109       0.00608370       0.06824804      -0.08621108      -0.02553031
Cu       3.66185011       5.51870174       1.83625832       0.08694199      -0.05789472       0.00857536
Cu       5.51115210       3.65860693       1.84503521      -0.04578803       0.09017994      -0.09191336
Cu       7.33874472       3.66737170      11.01413692      -0.02453828       0.04669386      -0.01025756
Cu       9.17886287       5.51258432      11.01926016       0.00252805      -0.00558783       0.03753357
Cu       7.35145583       5.50553850       1.84095388      -0.05460236      -0.00141606      -0.06236788
Cu       9.17692894       3.65900022       1.82739503       0.06154540       0.06400203       0.01081456
Cu      11.01763465       7.35526112       0.00262696       0.02517697      -0.05627588      -0.00688511
Cu       1.83911107       9.18413553       0.00720274       0.02800759       0.01293365      -0.08550631
Cu       0.00027296       9.17826341       1.82920500      -0.00587278       0.04010087       0.03443500
Cu       1.84909219       7.36092045       1.83334683      -0.06295153      -0.06883246       0.01163848
Cu       3.67980489       7.33745245      11.00817697      -0.01470086       0.05155574       0.06067738
Cu       5.51568358       9.17890861       0.00092355      -0.00158764       0.05125897       0.02895602
Cu       3.67193568       9.18537325       1.83985842       0.04066376       0.02850182      -0.06880292
Cu       5.49677197       7.34075800       1.83976013       0.06955174       0.01000929      -0.01311577
Cu       7.33706225       7.35961320       0.00129348       0.01931272      -0.07032686      -0.00553276
Cu       9.18681297       9.17931082       0.01271486      -0.05680217       0.01840126      -0.10044321
Cu       7.34722496       9.17512194       1.84519543      -0.02749221       0.02675742      -0.03405889
Cu       9.17355914       7.34713703       1.83192089       0.04775912      -0.02699876       0.04012133
Cu       0.00204810       0.00871232       3.65843590      -0.01839893      -0.07989943       0.11914464
Cu       1.83343289       1.84120909       3.67766841       0.05976324       0.00699286       0.01357246
Cu       0.01381814       1.85067967       5.51686742      -0.05317098      -0.09699031      -0.02287825
Cu       1.84072423      11.01123778       5.49756891      -0.04953415       0.02786410       0.05847300
Cu       3.67435878      11.00937194       3.67503583       0.01145279       0.07843792      -0.00924433
Cu       5.50072712       1.84333995       3.67418644       0.00652585      -0.06361452       0.03433159
Cu       3.66642093       1.84302601       5.52776338       0.03865049      -0.05399003      -0.10829325
Cu       5.51702974       0.00315183       5.51066228      -0.04933096       0.00836841      -0.04842295
Cu       7.34902171       0.00530693       3.66274831      -0.01606090      -0.01021085       0.06483316
Cu       9.18983818       1.84602752       3.67256744      -0.02298277      -0.04081295       0.01376043
Cu       7.33964579       1.83916430       5.50920615       0.01401243      -0.00421869      -0.01738145
Cu       9.17992010       0.01244036       5.50446828       0.07344056      -0.07537727       0.03056529
Cu      11.01043742       3.68513860       3.67636127       0.08364302      -0.04631513      -0.01584110
Cu       1.85815250       5.51036784       3.67417542      -0.11914114       0.01735281       0.00164009
Cu       0.00528996       5.49706509       5.50564186      -0.03577149       0.07335460       0.00548296
Cu       1.84608868       3.67928377       5.51366457      -0.03190262      -0.02360673      -0.06318296
Cu       3.68077935       3.67815592       3.66413359      -0.03583994      -0.02962404       0.05782805
Cu       5.50908703       5.51047616       3.67836452      -0.02624255      -0.01465069       0.00820406
Cu       3.66879003       5.51052278       5.52288721       0.08581514       0.02732567      -0.05401716
Cu       5.50825704       3.67603035       5.51432839       0.01266235       0.03839689      -0.00589614
Cu       7.34384062       3.66890001       3.66133990       0.01510983       0.03905676       0.10855982
Cu       9.18877412       5.50015157       3.67449653      -0.01800495       0.06063224       0.00276180
Cu       7.34891813       5.52449673       5.49773133      -0.02930891      -0.08097451       0.09211261