120
Lattice="15.9435 -0.0797175 0.0 -6.4326299 11.07786782 0.0 0.0 0.0 15.3984" Properties=species:S:1:pos:R:3:forces:R:3 energy=-180.53081396 stress="-0.0009859274311537875 -0.0004322207683034492 -7.533501514941092e-09 -0.0004322207683034492 0.0011576343431312164 5.78587895969378e-09 -7.533501514941092e-09 5.78587895969378e-09 -0.00048384070141588233" free_energy=-180.53116887 pbc="T T T"
Mg       0.00000000       0.00000000       0.00000000       0.00882077      -0.00131290       0.00000133
Mg      -0.00920495       1.84099684       2.56640005      -0.01212955       0.00216553       0.00000802
Mg       3.18870000      -0.01594350       0.00000000       0.00753293      -0.00102230       0.00000181
Mg       3.17949505       1.82505334       2.56640005      -0.00685825       0.00260170       0.00000894
Mg       6.37740000      -0.03188700       0.00000000       0.01091319      -0.00559291       0.00000234
Mg       6.36819505       1.80910984       2.56640005      -0.01024435       0.00106995       0.00000954
Mg       9.56610000      -0.04783050       0.00000000       0.00660424       0.00315783       0.00000161
Mg       9.55689505       1.79316634       2.56640005      -0.00543897       0.00145359       0.00000813
Mg      12.75480000      -0.06377400       0.00000000       0.01000249      -0.00147956       0.00000155
Mg      12.74559505       1.77722284       2.56640005      -0.00572339       0.00544679       0.00000973
Mg      -1.60815748       2.76946695       0.00000000       0.00881971      -0.00131349       0.00000227
Mg      -1.61736243       4.61046379       2.56640005      -0.01212985       0.00216548       0.00000969
Mg       1.58054253       2.75352345       0.00000000       0.00753226      -0.00102277       0.00000142
Mg       1.57133757       4.59452029       2.56640005      -0.00685799       0.00260080       0.00000813
Mg       4.76924253       2.73757996       0.00000000       0.01091331      -0.00559296       0.00000231
Mg       4.76003757       4.57857679       2.56640005      -0.01024364       0.00106872       0.00000986
Mg       7.95794252       2.72163646       0.00000000       0.00660540       0.00315809       0.00000170
Mg       7.94873757       4.56263329       2.56640005      -0.00543867       0.00145330       0.00000950
Mg      11.14664253       2.70569295       0.00000000       0.01000095      -0.00147878       0.00000251
Mg      11.13743757       4.54668979       2.56640005      -0.00572436       0.00544736       0.00001000
Mg      -3.21631495       5.53893391       0.00000000       0.00882071      -0.00131187       0.00000256
Mg      -3.22551990       7.37993075       2.56640005      -0.01213011       0.00216594       0.00000840
Mg      -0.02761495       5.52299041       0.00000000       0.00753220      -0.00102183       0.00000232
Mg      -0.03681990       7.36398725       2.56640005      -0.00685823       0.00260205       0.00000973
Mg       3.16108505       5.50704691       0.00000000       0.01091338      -0.00559465       0.00000173
Mg       3.15188010       7.34804375       2.56640005      -0.01024366       0.00106901       0.00000824
Mg       6.34978505       5.49110341       0.00000000       0.00660525       0.00315812       0.00000197
Mg       6.34058010       7.33210025       2.56640005      -0.00543831       0.00145386       0.00000976
Mg       9.53848505       5.47515991       0.00000000       0.01000227      -0.00147939       0.00000215
Mg       9.52928010       7.31615675       2.56640005      -0.00572246       0.00544791       0.00000906
Mg      -4.82447242       8.30840086       0.00000000       0.00882002      -0.00131228       0.00000179
Mg      -4.83367738      10.14939770       2.56640005      -0.01212910       0.00216624       0.00000871
Mg      -1.63577242       8.29245737       0.00000000       0.00753189      -0.00102130       0.00000221
Mg      -1.64497738      10.13345420       2.56640005      -0.00685877       0.00260229       0.00000901
Mg       1.55292758       8.27651387       0.00000000       0.01091349      -0.00559310       0.00000191
Mg       1.54372262      10.11751070       2.56640005      -0.01024468       0.00106819       0.00000923
Mg       4.74162758       8.26057036       0.00000000       0.00660455       0.00315819       0.00000235
Mg       4.73242262      10.10156720       2.56640005      -0.00543929       0.00145264       0.00000799
Mg       7.93032758       8.24462687       0.00000000       0.01000252      -0.00147979       0.00000043
Mg       7.92112262      10.08562370       2.56640005      -0.00572225       0.00544664       0.00000882
Mg       0.00000000       0.00000000       5.13279995       0.00881851      -0.00131347       0.00000736
Mg      -0.00920495       1.84099684       7.69920000      -0.01212912       0.00216465      -0.00000291
Mg       3.18870000      -0.01594350       5.13279995       0.00752910      -0.00102166       0.00000593
Mg       3.17949505       1.82505334       7.69920000      -0.00685662       0.00260045      -0.00000045
Mg       6.37740000      -0.03188700       5.13279995       0.01091020      -0.00559206       0.00000568
Mg       6.36819505       1.80910984       7.69920000      -0.01024165       0.00106867      -0.00000172
Mg       9.56610000      -0.04783050       5.13279995       0.00660308       0.00316085       0.00000573
Mg       9.55689505       1.79316634       7.69920000      -0.00543702       0.00145219      -0.00000197
Mg      12.75480000      -0.06377400       5.13279995       0.01000165      -0.00147941       0.00000800
Mg      12.74559505       1.77722284       7.69920000      -0.00572345       0.00544712      -0.00000196
Mg      -1.60815748       2.76946695       5.13279995       0.00881882      -0.00131293       0.00000782
Mg      -1.61736243       4.61046379       7.69920000      -0.01213061       0.00216523      -0.00000365
Mg       1.58054253       2.75352345       5.13279995       0.00752996      -0.00102182       0.00000708
Mg       1.57133757       4.59452029       7.69920000      -0.00685841       0.00260193      -0.00000258
Mg       4.76924253       2.73757996       5.13279995       0.01090970      -0.00559318       0.00000690
Mg       4.76003757       4.57857679       7.69920000      -0.01024185       0.00106891      -0.00000081
Mg       7.95794252       2.72163646       5.13279995       0.00660212       0.00316048       0.00000681
Mg       7.94873757       4.56263329       7.69920000      -0.00543691       0.00145220      -0.00000282
Mg      11.14664253       2.70569295       5.13279995       0.01000105      -0.00147847       0.00000716
Mg      11.13743757       4.54668979       7.69920000      -0.00572229       0.00544821      -0.00000236
Mg      -3.21631495       5.53893391       5.13279995       0.00881786      -0.00131148       0.00000692
Mg      -3.22551990       7.37993075       7.69920000      -0.01212968       0.00216698      -0.00000274
Mg      -0.02761495       5.52299041       5.13279995       0.00752966      -0.00102111       0.00000560
Mg      -0.03681990       7.36398725       7.69920000      -0.00685822       0.00260178      -0.00000109
Mg       3.16108505       5.50704691       5.13279995       0.01090980      -0.00559308       0.00000550
Mg       3.15188010       7.34804375       7.69920000      -0.01024287       0.00106860      -0.00000212
Mg       6.34978505       5.49110341       5.13279995       0.00660302       0.00315851       0.00000585
Mg       6.34058010       7.33210025       7.69920000      -0.00543803       0.00145264      -0.00000315
Mg       9.53848505       5.47515991       5.13279995       0.01000056      -0.00147961       0.00000750
Mg       9.52928010       7.31615675       7.69920000      -0.00572339       0.00544858      -0.00000101
Mg      -4.82447242       8.30840086       5.13279995       0.00881801      -0.00131219       0.00000667
Mg      -4.83367738      10.14939770       7.69920000      -0.01212944       0.00216564      -0.00000171
Mg      -1.63577242       8.29245737       5.13279995       0.00753040      -0.00102046       0.00000611
Mg      -1.64497738      10.13345420       7.69920000      -0.00685732       0.00260103      -0.00000037
Mg       1.55292758       8.27651387       5.13279995       0.01091076      -0.00559118       0.00000589
Mg       1.54372262      10.11751070       7.69920000      -0.01024314       0.00106840      -0.00000308
Mg       4.74162758       8.26057036       5.13279995       0.00660198       0.00315923       0.00000710
Mg       4.73242262      10.10156720       7.69920000      -0.00543764       0.00145404      -0.00000229
Mg       7.93032758       8.24462687       5.13279995       0.01000191      -0.00147908       0.00000813
Mg       7.92112262      10.08562370       7.69920000      -0.00572157       0.00544762      -0.00000140
Mg       0.00000000       0.00000000      10.26560005       0.00881847      -0.00131349      -0.00000900
Mg      -0.00920495       1.84099684      12.83199995      -0.01213027       0.00216604      -0.00000750
Mg       3.18870000      -0.01594350      10.26560005       0.00753041      -0.00102067      -0.00000935
Mg       3.17949505       1.82505334      12.83199995      -0.00685909       0.00260391      -0.00000620
Mg       6.37740000      -0.03188700      10.26560005       0.01090982      -0.00559149      -0.00000856
Mg       6.36819505       1.80910984      12.83199995      -0.01024442       0.00106958      -0.00000613
Mg       9.56610000      -0.04783050      10.26560005       0.00660230       0.00315990      -0.00000993
Mg       9.55689505       1.79316634      12.83199995      -0.00543975       0.00145399      -0.00000744
Mg      12.75480000      -0.06377400      10.26560005       0.01000095      -0.00147905      -0.00000930
Mg      12.74559505       1.77722284      12.83199995      -0.00572360       0.00544835      -0.00000587
Mg      -1.60815748       2.76946695      10.26560005       0.00881887      -0.00131264      -0.00001043
Mg      -1.61736243       4.61046379      12.83199995      -0.01212990       0.00216702      -0.00000628
Mg       1.58054253       2.75352345      10.26560005       0.00753042      -0.00102075      -0.00000896
Mg       1.57133757       4.59452029      12.83199995      -0.00685965       0.00260224      -0.00000769
Mg       4.76924253       2.73757996      10.26560005       0.01091149      -0.00559319      -0.00000798
Mg       4.76003757       4.57857679      12.83199995      -0.01024513       0.00106890      -0.00000760
Mg       7.95794252       2.72163646      10.26560005       0.00660271       0.00315945      -0.00000884
Mg       7.94873757       4.56263329      12.83199995      -0.00543943       0.00145299      -0.00000607
Mg      11.14664253       2.70569295      10.26560005       0.01000134      -0.00147933      -0.00000967
Mg      11.13743757       4.54668979      12.83199995      -0.00572362       0.00544768      -0.00000457
Mg      -3.21631495       5.53893391      10.26560005       0.00881818      -0.00131260      -0.00000851
Mg      -3.22551990       7.37993075      12.83199995      -0.01213097       0.00216557      -0.00000715
Mg      -0.02761495       5.52299041      10.26560005       0.00752987      -0.00102090      -0.00000959
Mg      -0.03681990       7.36398725      12.83199995      -0.00685942       0.00260249      -0.00000676
Mg       3.16108505       5.50704691      10.26560005       0.01090993      -0.00559186      -0.00000808
Mg       3.15188010       7.34804375      12.83199995      -0.01024473       0.00106940      -0.00000745
Mg       6.34978505       5.49110341      10.26560005       0.00660374       0.00315901      -0.00000842
Mg       6.34058010       7.33210025      12.83199995      -0.00544024       0.00145336      -0.00000732
Mg       9.53848505       5.47515991      10.26560005       0.01000075      -0.00147980      -0.00000882
Mg       9.52928010       7.31615675      12.83199995      -0.00572457       0.00544759      -0.00000739
Mg      -4.82447242       8.30840086      10.26560005       0.00881902      -0.00131210      -0.00001010
Mg      -4.83367738      10.14939770      12.83199995      -0.01212976       0.00216644      -0.00000781
Mg      -1.63577242       8.29245737      10.26560005       0.00752998      -0.00102122      -0.00000834
Mg      -1.64497738      10.13345420      12.83199995      -0.00685970       0.00260233      -0.00000664
Mg       1.55292758       8.27651387      10.26560005       0.01091094      -0.00559032      -0.00000827
Mg       1.54372262      10.11751070      12.83199995      -0.01024563       0.00106995      -0.00000628
Mg       4.74162758       8.26057036      10.26560005       0.00660401       0.00315869      -0.00001015
Mg       4.73242262      10.10156720      12.83199995      -0.00544126       0.00145316      -0.00000784
Mg       7.93032758       8.24462687      10.26560005       0.01000065      -0.00147934      -0.00000936
Mg       7.92112262      10.08562370      12.83199995      -0.00572405       0.00544796      -0.00000508
120
Lattice="15.9435 -0.0797175 0.0 -6.4326299 11.07786782 0.0 0.0 0.0 15.3984" Properties=species:S:1:pos:R:3:forces:R:3 energy=-180.51476283 stress="-0.0009696061157254405 -0.0004350188805351466 8.185739218595893e-07 -0.0004350188805351466 0.001108904603234615 4.250580061890764e-06 8.185739218595893e-07 4.250580061890764e-06 -0.0004706128963631424" free_energy=-180.51512566 pbc="T T T"
Mg      -6.42433837      11.07571210      15.39797115      -0.00858186       0.00088791       0.02407308
Mg      -0.01174678       1.84204762       2.57894574       0.01153174      -0.00574447      -0.03609481
Mg      -3.23853371      11.05494882       0.00324383      -0.00749967       0.02758791      -0.00946186
Mg       3.19490338       1.82476047       2.57266520      -0.06026958       0.00394479      -0.01843291
Mg      -0.06156945      11.03675865       0.00690125       0.02862969       0.02562289      -0.02311685
Mg       6.36165725       1.80116620       2.56655588       0.00472181       0.02988193      -0.00634958
Mg       9.56420134      -0.04249322      15.39366592       0.00037340       0.00974615       0.01419376
Mg       9.54555604       1.78901816       2.57384641       0.02408682       0.01922266      -0.02066175
Mg       6.32208049      11.00960551      15.39722310       0.02718994       0.01605072       0.00347495
Mg      12.75271313       1.78099305       2.56208265      -0.03856731      -0.01529949       0.02893528
Mg      -1.60220481       2.77166953       0.01223896      -0.01266678      -0.01783923      -0.02817157
Mg      -1.61935147       4.61820220       2.56472917      -0.00695764      -0.02068525       0.00535008
Mg       1.57617803       2.75417488       0.00451512       0.02677738      -0.00634937       0.00483606
Mg       1.57159759       4.59611212       2.56939381      -0.01013287      -0.00640021      -0.00894937
Mg       4.76402989       2.73968570      15.39291340       0.02207390      -0.01540607       0.01329175
Mg       4.75457132       4.58168875       2.57331101       0.01428831      -0.01881081      -0.02202464
Mg       7.95213709       2.72693738       0.00480676       0.01749237      -0.00665741      -0.01345738
Mg       7.94988836       4.56745772       2.57227716      -0.00713925      -0.01214742      -0.02366865
Mg      11.14536526       2.70757965       0.00581151      -0.00064550      -0.00985999      -0.01905113
Mg      11.14573911       4.54685595       2.56203384      -0.04020141       0.00582981       0.01248110
Mg      12.71938522       5.45551478      15.38579179       0.03255618       0.00894903       0.02970283
Mg      -3.22704951       7.37698931       2.57205511      -0.01165665       0.00761757      -0.02767363
Mg      -0.03239086       5.51856364       0.00696932       0.02692466       0.03478895      -0.01858391
Mg      -0.04329234       7.35992155       2.58312857       0.01377007       0.02768383      -0.05308996
Mg       3.16500105       5.51034634       0.00147994      -0.00857978      -0.01407062      -0.00872045
Mg       3.15965779       7.33643559       2.57385565      -0.03628835       0.03880876      -0.01013553
Mg       6.34701798       5.48787290       0.00132688       0.00803970       0.01835589      -0.00360790
Mg       6.33998202       7.33439997       2.57080630      -0.00542448       0.00469154      -0.02478485
Mg       9.54042995       5.49034377       0.00027194      -0.00209623      -0.05542263      -0.00963391
Mg       9.52052640       7.32166350       2.56545628       0.01900286       0.00337530       0.00538001
Mg      11.11878510       8.22443176      15.39398682       0.01920685       0.01487623       0.00832310
Mg      -4.82183070      10.15145196       2.56710176      -0.04588001      -0.00075554       0.00315598
Mg      -1.63932005       8.29270485      15.39745577       0.02198554      -0.02210654       0.01013692
Mg      -1.65239125      10.13199591       2.56916714       0.01689599      -0.01649135       0.00559775
Mg       1.55963891       8.28650981       0.00507223      -0.01169988      -0.04579764      -0.00023454
Mg       1.54647487      10.11396077       2.56890137      -0.01657868      -0.01308202       0.00103056
Mg       4.73551987       8.26615612      15.39423812       0.02826509      -0.01929360       0.01136345
Mg       4.73283336      10.09870829       2.56193513      -0.00696057       0.01523375       0.00867161
Mg       7.93332461       8.23763950       0.00066998      -0.01157961       0.02586074      -0.00540698
Mg       7.91972494      10.08778814       2.57348224      -0.00020589       0.00528491      -0.02430445
Mg      15.93618441      -0.07885592       5.12870089       0.03838815      -0.01469031       0.01147739
Mg      -0.00744279       1.83515546       7.70492004      -0.00383922       0.01430336      -0.01955922
Mg      -3.23800932      11.06137955       5.13540336      -0.01728431      -0.00677991       0.00910536
Mg       3.18118577       1.83474202       7.69446361      -0.00392922      -0.03390006       0.01711017
Mg      -0.05607876      11.04268151       5.12648645       0.01859255      -0.00221315       0.01068972
Mg       6.36799817       1.80441287       7.69046942      -0.00740709       0.01080999       0.01119357
Mg       9.56929317      -0.04155273       5.12588530      -0.01208590      -0.02803893       0.01452212
Mg       9.56309985       1.79398197       7.69744535      -0.02073252       0.00216669       0.00404022
Mg       6.32107531      11.00688258       5.14434721       0.00207358       0.02804947      -0.03430675
Mg      12.75133081       1.78287121       7.69664695      -0.02432827      -0.01218673       0.00757245
Mg      -1.60411770       2.76698334       5.13651219      -0.01137022       0.01160340      -0.00508595
Mg      -1.61236338       4.60737947       7.70570244      -0.02048158       0.01292508      -0.02112104
Mg       1.56862526       2.75380230       5.12831024       0.04017130      -0.00551775       0.01326106
Mg       1.57534172       4.58895102       7.69652360      -0.02140313       0.01349713      -0.00337552
Mg       4.76351136       2.73564093       5.13256204       0.02669043       0.01103219       0.00142906
Mg       4.75844909       4.57931850       7.69274869       0.01115318       0.00889486       0.02312445
Mg       7.95182440       2.72427494       5.13035006       0.01195479       0.00067246       0.00339396
Mg       7.95657275       4.55738496       7.69086916      -0.03927604       0.01320926       0.02026807
Mg      11.14250809       2.70450213       5.13638362       0.02358591       0.01285615      -0.02015835
Mg      11.13852410       4.55146527       7.69917305       0.00169137      -0.00599177       0.00137600
Mg      -3.21190368       5.53707617       5.12968439       0.00026547      -0.01441391       0.01757382
Mg      -3.23367680       7.38075788       7.69951721       0.00631201       0.00084878       0.01248086
Mg      -0.03112554       5.53014271       5.12597507       0.01701113      -0.03835573       0.03238356
Mg      -0.04381984       7.35710421       7.69835216       0.00551969       0.01122581       0.00727633
Mg       3.16233295       5.50627576       5.12931344       0.00150342      -0.01013890       0.01737271
Mg       3.14024092       7.34147795       7.69533639       0.02409991       0.01146982       0.01127974
Mg       6.35235941       5.49860946       5.12299502      -0.00575614      -0.01797410       0.03656246
Mg       6.34969076       7.33738602       7.69963208      -0.04215469      -0.01503199      -0.00046998
Mg       9.53552000       5.48197337       5.13076028       0.02824978      -0.02512233      -0.00820614
Mg       9.52889372       7.30904238       7.69708364      -0.00129868       0.02696977       0.00778211
Mg      -4.81407075       8.29788261       5.12647321      -0.01969760       0.03491066       0.01883053
Mg      -4.84571646      10.15237629       7.69676428       0.03015840      -0.01320879      -0.00563881
Mg      -1.63245890       8.28869288       5.14075800      -0.01165489       0.00934401      -0.01630803
Mg      -1.63441935      10.12329691       7.69435212      -0.03963566       0.02605658       0.02366207
Mg       1.54168858       8.27064062       5.13885506       0.05684823       0.02070084      -0.01214094
Mg       1.54600168      10.11656230       7.69656857      -0.01711412       0.00112615      -0.00446370
Mg       4.74815465       8.26023254       5.13306434      -0.02595369      -0.00015022       0.00742159
Mg       4.72136604      10.10130205       7.69406279       0.01973467       0.00418272       0.01901956
Mg       7.93113716       8.24770744       5.13210579       0.02137775      -0.00790358       0.00748284
Mg       7.91877570      10.09060446       7.69745859      -0.01294833      -0.01377206       0.01840511
Mg       9.51355308      10.98650379      10.26080915       0.01108319       0.02484715       0.02219221
Mg      -0.01751955       1.84032972      12.83851809       0.01079517      -0.00257100      -0.01756749
Mg       3.19142544      -0.01433650      10.26680990       0.00531280      -0.00955383      -0.02114910
Mg       3.17455984       1.83158758      12.83453391      -0.00402601      -0.01844246      -0.00485937
Mg       6.38321024      -0.02089829      10.26381784      -0.00568726      -0.04808066      -0.00949548
Mg       6.37598035       1.80463949      12.82190245      -0.03478640       0.00577035       0.05060932
Mg       9.56261215      -0.04640661      10.26412781       0.02156197       0.00649849       0.00093875
Mg       9.55152189       1.79383827      12.82660897       0.01770206       0.01416712       0.01208606
Mg      12.75829322      -0.05220982      10.27304287      -0.00001573      -0.04324751      -0.02086142
Mg      12.74577817       1.78506614      12.82931524      -0.00573366      -0.01044603       0.01943225
Mg      -1.59302731       2.76298159      10.25806977      -0.01984539       0.01900546       0.02755209
Mg      -1.61238138       4.60628471      12.83296712      -0.00357020       0.00726478      -0.00839362
Mg       1.58043064       2.75275711      10.26243044       0.02329769      -0.00182820       0.01276458
Mg       1.56734201       4.59313658      12.82687090      -0.00667807       0.00825088       0.01778135
Mg       4.78281664       2.73291740      10.27466986      -0.03352989       0.02162035      -0.03917883
Mg       4.75699533       4.57576762      12.82669505      -0.00282343       0.01110464       0.01431544
Mg       7.95623459       2.72243741      10.26542543       0.01773702       0.01047330      -0.02279479
Mg       7.94402157       4.56359057      12.82584783       0.00465594       0.00284927       0.02392024
Mg      11.15033353       2.70609159      10.26216174       0.00864968       0.00136202      -0.00191352
Mg      11.14193814       4.54280814      12.82405484      -0.03137528       0.01168164       0.01601511
Mg      -3.20853517       5.54088070      10.27305703      -0.00863118      -0.02160400      -0.03094055
Mg      -3.21973679       7.36963032      12.82676203      -0.02479218       0.03338884       0.01471834
Mg      -0.02358817       5.53213600      10.25606336       0.00801801      -0.03024117       0.02647686
Mg      -0.03741986       7.36751725      12.82892874       0.00340152      -0.00817802       0.02679357
Mg       3.15696598       5.51447177      10.27316005       0.02576754      -0.02912830      -0.03201082
Mg       3.14948674       7.34622213      12.82990053      -0.00941627       0.01277833       0.00908963
Mg       6.34781946       5.49925889      10.26861460      -0.00055487      -0.01782353      -0.02768019
Mg       6.34075669       7.33614828      12.82670567      -0.01534825       0.00046248       0.01955616
Mg       9.53185238       5.46722470      10.26790519       0.03319647       0.01232356      -0.01318772
Mg       9.52863090       7.31667163      12.82513211       0.00448542      -0.00601762       0.01417433
Mg      11.11718787       8.22838373      10.27320147       0.02363351      -0.00785884      -0.02482684
Mg      -4.83703224      10.15262204      12.83452898       0.01042645      -0.00574598      -0.00727818
Mg      -1.63139964       8.28667185      10.27271180      -0.00762743       0.03130125      -0.02701923
Mg      -1.65309472      10.13402896      12.83025069       0.01014975       0.00859745      -0.00006294
Mg       1.54824822       8.27924202      10.26528254       0.01674829       0.00360916      -0.00597312
Mg       1.54267665      10.12241713      12.82961119      -0.01235610      -0.01460442       0.00888037
Mg       4.73554123       8.26815948      10.26597115       0.02244655      -0.00445491      -0.01111579
Mg       4.73175020      10.10550891      12.83798038      -0.00043913       0.00357438      -0.02024713
Mg       7.93528624       8.23677398      10.26741367      -0.01229678       0.02833119      -0.01221303
Mg       7.93291800      10.08409366      12.83403993      -0.04148919       0.00739739      -0.00269435
120
Lattice="15.9435 -0.0797175 0.0 -6.4326299 11.07786782 0.0 0.0 0.0 15.3984" Properties=species:S:1:pos:R:3:forces:R:3 energy=-180.46528139 stress="-0.0009845045917674148 -0.00043258756307025005 -7.961669040976684e-07 -0.00043258756307025005 0.0010415076767047032 -8.420045471181551e-07 -7.961669040976684e-07 -8.420045471181551e-07 -0.0005236141628262612" free_energy=-180.46565407 pbc="T T T"
Mg      -6.41605032      11.07355663      15.39755186      -0.02832672      -0.00027774       0.04982897
Mg      -0.01428401       1.84309596       2.59147712       0.03128258      -0.00872930      -0.07419656
Mg      -3.23314063      11.04798416       0.00648380      -0.02020029       0.04937531      -0.01518434
Mg       3.21028789       1.82446892       2.57892311      -0.11134525       0.00504361      -0.03934579
Mg      -0.06789779      11.02754647       0.01379327       0.04109716       0.05513218      -0.04614719
Mg       6.35512134       1.79323438       2.56670941       0.01769922       0.05132287      -0.01314871
Mg       9.56230272      -0.03715219      15.38893753      -0.00409451       0.01684584       0.03326363
Mg       9.53422647       1.78487755       2.58128476       0.05069604       0.03585960      -0.04779768
Mg       6.32200163      11.00512334      15.39604759       0.04202141       0.02998862       0.00427305
Mg      12.75981590       1.78475703       2.55777695      -0.07172688      -0.03662964       0.05785397
Mg      -1.59625721       2.77386495       0.02446667      -0.02916134      -0.03161346      -0.05166588
Mg      -1.62134334       4.62593233       2.56306045      -0.00526706      -0.04345279       0.00909217
Mg       1.57182417       2.75482361       0.00903224       0.04326853      -0.01108910       0.00852404
Mg       1.57185334       4.59770142       2.57238418      -0.01309687      -0.01540103      -0.02114404
Mg       4.75882580       2.74178522      15.38743203       0.03381124      -0.01852198       0.02214718
Mg       4.74911056       4.58479317       2.58021349       0.03738609      -0.03712015      -0.04888816
Mg       7.94633853       2.73223550       0.00960814       0.03028163      -0.01626905      -0.02398998
Mg       7.95103621       4.57227707       2.57814503      -0.00806256      -0.02832527      -0.04684244
Mg      11.14408767       2.70946226       0.01161548      -0.01096972      -0.01768742      -0.03463953
Mg      11.15402483       4.54702417       2.55767255      -0.07535892       0.00327759       0.02746205
Mg      12.71159807       5.45181651      15.37319544       0.05557601       0.01603672       0.05564998
Mg      -3.22858381       7.37405076       2.57769909      -0.01120499       0.00853179      -0.05714995
Mg      -0.03715616       5.51415063       0.01393124       0.04634219       0.06611682      -0.03718638
Mg      -0.04975950       7.35586675       2.59983598       0.03448884       0.05121349      -0.11473369
Mg       3.16891337       5.51364005       0.00295649      -0.02730196      -0.01873066      -0.01760457
Mg       3.16742125       7.32484263       2.58130724      -0.06250969       0.07736447      -0.02490219
Mg       6.34425407       5.48464956       0.00265222       0.00533221       0.03123284      -0.00648838
Mg       6.33938164       7.33670148       2.57520270      -0.00846904       0.00580724      -0.05352744
Mg       9.54237375       5.50550544       0.00054002      -0.01624929      -0.09795067      -0.01858657
Mg       9.51178005       7.32717154       2.56451467       0.05101393      -0.00423386       0.00909573
Mg      11.11855029       8.22018586      15.38957718       0.02600493       0.02542001       0.01414247
Mg      -4.81000251      10.15350575       2.56780485      -0.08122001      -0.00152528       0.00496442
Mg      -1.64285927       8.29294335      15.39651554       0.03058436      -0.04318780       0.02097055
Mg      -1.65979855      10.13053095       2.57193655       0.04120002      -0.03823971       0.01025288