108
Lattice="10.6938 0.0 0.0 0.0 10.6938 0.0 0.0 0.0 10.8567" Properties=species:S:1:pos:R:3:forces:R:3 energy=-404.29945558 stress="-0.03228143787554137 1.240749599134333e-07 8.176376954907069e-09 1.240749599134333e-07 -0.032281333224157854 4.614347696765493e-08 8.176376954907069e-09 4.614347696765493e-08 -0.025989881152558632" free_energy=-404.30538734 pbc="T T T"
Cu       0.00000000       0.00000000       0.00000000       0.00001379       0.00000250       0.00000492
Cu       1.78230356       1.78230356       0.00000000       0.00397374       0.00397003       0.00000494
Cu       0.00000000       1.78230356       1.80945362       0.00001010       0.00815852       0.00074673
Cu       1.78230356       0.00000000       1.80945362       0.00816510       0.00000884       0.00075399
Cu       3.56459644       0.00000000       0.00000000      -0.00011060      -0.00000397       0.00000378
Cu       5.34690000       1.78230356       0.00000000      -0.00001052       0.00010724      -0.00000340
Cu       3.56459644       1.78230356       1.80945362       0.00339462      -0.00340733      -0.01121757
Cu       5.34690000       0.00000000       1.80945362      -0.00000808       0.00000383      -0.00310550
Cu       7.12920356       0.00000000       0.00000000       0.00009798       0.00000398      -0.00000423
Cu       8.91149644       1.78230356       0.00000000      -0.00396218       0.00397048       0.00000480
Cu       7.12920356       1.78230356       1.80945362      -0.00340464      -0.00341116      -0.01121124
Cu       8.91149644       0.00000000       1.80945362      -0.00815826       0.00001872       0.00075440
Cu       0.00000000       3.56459644       0.00000000       0.00000853      -0.00012010       0.00001544
Cu       1.78230356       5.34690000       0.00000000       0.00011388      -0.00000566      -0.00000265
Cu       0.00000000       5.34690000       1.80945362       0.00001669      -0.00000128      -0.00311520
Cu       1.78230356       3.56459644       1.80945362      -0.00340131       0.00338608      -0.01123452
Cu       3.56459644       3.56459644       0.00000000      -0.00397096      -0.00397384      -0.00000638
Cu       5.34690000       5.34690000       0.00000000      -0.00000600      -0.00000098      -0.00001346
Cu       3.56459644       5.34690000       1.80945362      -0.00817454      -0.00000451       0.00074530
Cu       5.34690000       3.56459644       1.80945362      -0.00000091      -0.00817230       0.00074983
Cu       7.12920356       3.56459644       0.00000000       0.00396317      -0.00397461       0.00000206
Cu       8.91149644       5.34690000       0.00000000      -0.00010640       0.00000282       0.00000362
Cu       7.12920356       5.34690000       1.80945362       0.00815832      -0.00000019       0.00075731
Cu       8.91149644       3.56459644       1.80945362       0.00340306       0.00339294      -0.01123181
Cu       0.00000000       7.12920356       0.00000000       0.00000969       0.00011650       0.00000055
Cu       1.78230356       8.91149644       0.00000000       0.00397299      -0.00396432       0.00000540
Cu       0.00000000       8.91149644       1.80945362       0.00002067      -0.00815738       0.00075013
Cu       1.78230356       7.12920356       1.80945362      -0.00340655      -0.00339635      -0.01123439
Cu       3.56459644       7.12920356       0.00000000      -0.00396797       0.00397913      -0.00000857
Cu       5.34690000       8.91149644       0.00000000      -0.00001151      -0.00010637      -0.00000830
Cu       3.56459644       8.91149644       1.80945362       0.00339810       0.00341192      -0.01123045
Cu       5.34690000       7.12920356       1.80945362       0.00000471       0.00816951       0.00074321
Cu       7.12920356       7.12920356       0.00000000       0.00395944       0.00397007      -0.00000831
Cu       8.91149644       8.91149644       0.00000000      -0.00396310      -0.00397295      -0.00000598
Cu       7.12920356       8.91149644       1.80945362      -0.00341898       0.00341266      -0.01121733
Cu       8.91149644       7.12920356       1.80945362       0.00340221      -0.00341152      -0.01121952
Cu       0.00000000       0.00000000       3.61889638       0.00001577       0.00001312       0.00307574
Cu       1.78230356       1.78230356       3.61889638      -0.00339635      -0.00340671       0.01120260
Cu       0.00000000       1.78230356       5.42835000       0.00000129       0.00012147      -0.00000292
Cu       1.78230356       0.00000000       5.42835000       0.00010280      -0.00000051      -0.00001026
Cu       3.56459644       0.00000000       3.61889638      -0.00816176       0.00000740      -0.00077047
Cu       5.34690000       1.78230356       3.61889638      -0.00000702       0.00816269      -0.00075535
Cu       3.56459644       1.78230356       5.42835000      -0.00395746       0.00397980      -0.00000584
Cu       5.34690000       0.00000000       5.42835000       0.00000230       0.00001028      -0.00000078
Cu       7.12920356       0.00000000       3.61889638       0.00814622       0.00000949      -0.00076163
Cu       8.91149644       1.78230356       3.61889638       0.00340450      -0.00341009       0.01120527
Cu       7.12920356       1.78230356       5.42835000       0.00395584       0.00397457       0.00000410
Cu       8.91149644       0.00000000       5.42835000      -0.00010599       0.00001006      -0.00000727
Cu       0.00000000       3.56459644       3.61889638       0.00000642      -0.00817496      -0.00075564
Cu       1.78230356       5.34690000       3.61889638       0.00816199      -0.00000351      -0.00075176
Cu       0.00000000       5.34690000       5.42835000       0.00000691      -0.00000925       0.00001651
Cu       1.78230356       3.56459644       5.42835000       0.00397504      -0.00397333       0.00000430
Cu       3.56459644       3.56459644       3.61889638       0.00340068       0.00338990       0.01122065
Cu       5.34690000       5.34690000       3.61889638       0.00001381      -0.00000399       0.00310497
Cu       3.56459644       5.34690000       5.42835000      -0.00010497      -0.00000864       0.00000587
Cu       5.34690000       3.56459644       5.42835000       0.00000278      -0.00010794       0.00000696
Cu       7.12920356       3.56459644       3.61889638      -0.00340709       0.00340645       0.01121760
Cu       8.91149644       5.34690000       3.61889638      -0.00817540       0.00000751      -0.00075320
Cu       7.12920356       5.34690000       5.42835000       0.00009787      -0.00000150       0.00001395
Cu       8.91149644       3.56459644       5.42835000      -0.00397837      -0.00396735       0.00001747
Cu       0.00000000       7.12920356       3.61889638       0.00001432       0.00816117      -0.00075410
Cu       1.78230356       8.91149644       3.61889638      -0.00341617       0.00340877       0.01119729
Cu       0.00000000       8.91149644       5.42835000       0.00001548      -0.00011206      -0.00000415
Cu       1.78230356       7.12920356       5.42835000       0.00396140       0.00397387       0.00000765
Cu       3.56459644       7.12920356       3.61889638       0.00340660      -0.00339670       0.01121552
Cu       5.34690000       8.91149644       3.61889638       0.00000804      -0.00815899      -0.00075254
Cu       3.56459644       8.91149644       5.42835000      -0.00396105      -0.00397034       0.00000357
Cu       5.34690000       7.12920356       5.42835000       0.00001668       0.00009803       0.00000743
Cu       7.12920356       7.12920356       3.61889638      -0.00342026      -0.00341558       0.01121817
Cu       8.91149644       8.91149644       3.61889638       0.00340899       0.00340322       0.01121088
Cu       7.12920356       8.91149644       5.42835000       0.00394407      -0.00397379       0.00000138
Cu       8.91149644       7.12920356       5.42835000      -0.00397810       0.00395823       0.00000467
Cu       0.00000000       0.00000000       7.23780362       0.00000633      -0.00000940      -0.00308239
Cu       1.78230356       1.78230356       7.23780362      -0.00340088      -0.00339223      -0.01120760
Cu       0.00000000       1.78230356       9.04724638       0.00000552       0.00816880      -0.00074252
Cu       1.78230356       0.00000000       9.04724638       0.00817236      -0.00000688      -0.00074162
Cu       3.56459644       0.00000000       7.23780362      -0.00815351      -0.00000082       0.00076637
Cu       5.34690000       1.78230356       7.23780362      -0.00000184       0.00816490       0.00075952
Cu       3.56459644       1.78230356       9.04724638       0.00340854      -0.00340984       0.01122366
Cu       5.34690000       0.00000000       9.04724638      -0.00000049       0.00000526       0.00310616
Cu       7.12920356       0.00000000       7.23780362       0.00814595       0.00000728       0.00076690
Cu       8.91149644       1.78230356       7.23780362       0.00340269      -0.00339668      -0.01120974
Cu       7.12920356       1.78230356       9.04724638      -0.00341463      -0.00340823       0.01120998
Cu       8.91149644       0.00000000       9.04724638      -0.00817261       0.00001338      -0.00074698
Cu       0.00000000       3.56459644       7.23780362       0.00000236      -0.00815463       0.00073977
Cu       1.78230356       5.34690000       7.23780362       0.00816842      -0.00001530       0.00075435
Cu       0.00000000       5.34690000       9.04724638       0.00000445      -0.00000611       0.00309962
Cu       1.78230356       3.56459644       9.04724638      -0.00339807       0.00341324       0.01123113
Cu       3.56459644       3.56459644       7.23780362       0.00341649       0.00341328      -0.01121403
Cu       5.34690000       5.34690000       7.23780362       0.00000443       0.00000181      -0.00309148
Cu       3.56459644       5.34690000       9.04724638      -0.00816180      -0.00000002      -0.00075266
Cu       5.34690000       3.56459644       9.04724638      -0.00000289      -0.00816287      -0.00075866
Cu       7.12920356       3.56459644       7.23780362      -0.00341942       0.00341104      -0.01121848
Cu       8.91149644       5.34690000       7.23780362      -0.00817357       0.00000118       0.00074926
Cu       7.12920356       5.34690000       9.04724638       0.00815829       0.00000688      -0.00077269
Cu       8.91149644       3.56459644       9.04724638       0.00340193       0.00339707       0.01121418
Cu       0.00000000       7.12920356       7.23780362       0.00000546       0.00816362       0.00075525
Cu       1.78230356       8.91149644       7.23780362      -0.00340569       0.00340652      -0.01120241
Cu       0.00000000       8.91149644       9.04724638       0.00001300      -0.00816277      -0.00074604
Cu       1.78230356       7.12920356       9.04724638      -0.00338800      -0.00340688       0.01122671
Cu       3.56459644       7.12920356       7.23780362       0.00340954      -0.00341290      -0.01120663
Cu       5.34690000       8.91149644       7.23780362       0.00000984      -0.00816661       0.00076188
Cu       3.56459644       8.91149644       9.04724638       0.00340534       0.00340992       0.01122537
Cu       5.34690000       7.12920356       9.04724638      -0.00000762       0.00815915      -0.00075102
Cu       7.12920356       7.12920356       7.23780362      -0.00341543      -0.00341927      -0.01120863
Cu       8.91149644       8.91149644       7.23780362       0.00339549       0.00339564      -0.01120556
Cu       7.12920356       8.91149644       9.04724638      -0.00341943       0.00340054       0.01121552
Cu       8.91149644       7.12920356       9.04724638       0.00339650      -0.00340970       0.01121409
108
Lattice="10.6938 0.0 0.0 0.0 10.6938 0.0 0.0 0.0 10.8567" Properties=species:S:1:pos:R:3:forces:R:3 energy=-404.27740266 stress="-0.03269501129272751 -1.5618278081916698e-05 -7.191023667694752e-06 -1.5618278081916698e-05 -0.032717536974060935 -2.026957551270742e-05 -7.191023667694752e-06 -2.026957551270742e-05 -0.02640280007885633" free_energy=-404.28334652 pbc="T T T"
Cu       0.00250791      10.69029618      10.85652195      -0.01671717       0.04173040       0.01269858
Cu       1.78468176       1.78680929      10.85455482       0.00999144      -0.03755884       0.00802643
Cu      10.69301347       1.78707877       1.80754013       0.01511748      -0.04587980       0.03545439
Cu       1.78270576      10.68802513       1.80534403      -0.02314086       0.06716972       0.05270670
Cu       3.56806005      10.69196922       0.00060874      -0.03430881       0.02152716      -0.04345533
Cu       5.35199143       1.77974304      10.85524846      -0.04195421       0.04060930      -0.00236855
Cu       3.56280929       1.77920311       1.81029675      -0.01737178       0.02665026      -0.01495676
Cu       5.34141547       0.00518125       1.80872036       0.05578300      -0.02877025       0.01331433
Cu       7.12786278       0.00591282      10.85389354       0.02321855      -0.03471537       0.05084607
Cu       8.90930913       1.78272511       0.00030420       0.03943116      -0.02413624      -0.02283876
Cu       7.13573844       1.78611997       1.81016332      -0.05617201      -0.06509098      -0.02044403
Cu       8.91085513      10.69251225       1.81720074      -0.01338053       0.02059814      -0.06027347
Cu       0.00460614       3.56248099      10.85604545      -0.05080572      -0.00826397       0.00278873
Cu       1.76990763       5.34625816       0.00623272       0.09676433      -0.01837282      -0.04983519
Cu       0.00020639       5.35060690       1.81324369      -0.06402823      -0.04654315      -0.02494646
Cu       1.77801097       3.56598759       1.81422655       0.04123133      -0.02364433      -0.03167522
Cu       3.56118094       3.56156121      10.85666254       0.00655159       0.03837026       0.00294744
Cu       5.35058722       5.34467751      10.85576936      -0.05631347       0.00956312       0.05198186
Cu       3.56042446       5.35238806       1.81545173       0.05496931      -0.06657972      -0.06182531
Cu       5.34683145       3.55337180       1.80426737      -0.03332912       0.10092813       0.01340413
Cu       7.13335575       3.56234036      10.85627257      -0.03398317      -0.00652387      -0.00410053
Cu       8.91389431       5.33967195      10.84981381      -0.00251492       0.05501294       0.06607926
Cu       7.13402454       5.34626671       1.80718294      -0.03611156       0.00263847       0.00683069
Cu       8.90753096       3.55840248       1.81139089       0.04927648       0.07480240      -0.01574365
Cu      10.69361938       7.12508196       0.00019889      -0.01509299       0.06879122      -0.01288291
Cu       1.78519314       8.91406316       0.00301653      -0.03394677      -0.04303374      -0.04908686
Cu      10.69219646       8.91174614       1.81208203       0.01953101      -0.02190263      -0.02838880
Cu       1.78158462       7.12137046       1.80551872      -0.01954006       0.06441911       0.03044720
Cu       3.56237640       7.13514718       0.00401383       0.00844271      -0.05008674      -0.03253542
Cu       5.34858203       8.91101607       0.00140985      -0.03031009       0.00271058      -0.00710337
Cu       3.55746100       8.91488808       1.81020827       0.03301991      -0.00810628       0.00313289
Cu       5.34190375       7.14149202       1.81467026       0.02198277      -0.09690415      -0.05551883
Cu       7.12479547       7.12657813       0.00613664       0.06344169       0.02383481      -0.03748902
Cu       8.90904574       8.92131602       0.00070319       0.01427773      -0.08689709       0.00188271
Cu       7.12443670       8.91217218       1.81151921       0.03043258       0.02928444      -0.03063573
Cu       8.91497866       7.13486839       1.80925429      -0.03201306      -0.02964513      -0.04350964
Cu      10.68970973      10.69373766       3.61540096       0.05443099       0.02519683       0.02228400
Cu       1.78374584       1.78111762       3.62719915      -0.03413949      -0.00367991      -0.06629896
Cu       0.00235306       1.77976047       5.42902225      -0.03316050       0.03336005      -0.01776522
Cu       1.78548294       0.00353013       5.42616324      -0.03431977      -0.05169942      -0.00075169
Cu       3.56586964       0.00394986       3.62017009      -0.00891102      -0.03601169       0.00095066
Cu       5.34836858       1.78856938       3.61830914      -0.01427151      -0.06245043       0.01174082
Cu       3.56496387       1.77589637       5.43098199       0.01773067       0.05979663      -0.00076889
Cu       5.34793174       0.00572717       5.43477380      -0.00653604      -0.06898795      -0.04101596
Cu       7.12729836      10.68894501       3.62013101      -0.01674661       0.03598051      -0.00189934
Cu       8.90146084       1.78594095       3.61953204       0.07822930      -0.00464520       0.04058553
Cu       7.13038790       1.77799621       5.43245644       0.00970403       0.04558165      -0.06107883
Cu       8.91462523       0.00140452       5.42907512       0.00479822      -0.02076133      -0.01158015
Cu       0.00111804       3.57232271       3.61814260      -0.03980237      -0.07971160       0.02693687
Cu       1.77883920       5.33949968       3.61766838       0.03870788       0.07145298       0.05175732
Cu       0.00164150       5.35243404       5.42863987       0.00933357      -0.03770852       0.00844903
Cu       1.78583412       3.55962917       5.42833057      -0.00891988       0.03319720       0.02205348
Cu       3.56122372       3.56391513       3.62309662       0.04253750       0.01057615      -0.01537921
Cu       5.34903470       5.35202778       3.61538630      -0.03075896      -0.05979705      -0.02298643
Cu       3.57132914       5.35370628       5.42970611      -0.04412800      -0.04470150      -0.02887586
Cu       5.34396006       3.56691261       5.42625346       0.02009306      -0.02649782       0.00656210
Cu       7.11904071       3.56079725       3.61345891       0.06055884       0.05919634       0.05521594
Cu       8.90976105       5.35245586       3.61988705      -0.01458555      -0.04862919      -0.01081298
Cu       7.12113327       5.34542864       5.42484958       0.07130934       0.00179729       0.01143420
Cu       8.90983130       3.57069693       5.42753966      -0.00546002      -0.03413446      -0.01863214
Cu      10.68910232       7.12887291       3.61868598       0.04675433       0.00507038       0.00472792
Cu       1.78151351       8.90362002       3.61930709       0.01314025       0.05152413       0.01367861
Cu       0.00058420       8.90829845       5.42173632       0.00923079       0.04114752       0.04137753
Cu       1.78995936       7.12932440       5.43088602      -0.05136793      -0.00902664      -0.04194842
Cu       3.56658698       7.12852387       3.61662570      -0.02887526       0.00476969       0.04104765
Cu       5.34460939       8.90963411       3.61659617       0.00116484       0.03389594       0.05384763
Cu       3.56711921       8.91144243       5.43247598       0.01114234       0.02340475      -0.05473452
Cu       5.35287741       7.12672100       5.42979362      -0.03318821       0.05514950      -0.03124047
Cu       7.12850954       7.12554126       3.61418674       0.02326396       0.04792026       0.04735531
Cu       8.91046256       8.91485140       3.61974689      -0.01095865      -0.03906884       0.01884616
Cu       7.13287389       8.91514580       5.42991782      -0.02551192      -0.05173921      -0.00302546
Cu       8.91904337       7.12898049       5.43247511      -0.10446576      -0.00365262      -0.01917173
Cu       0.00410642       0.00279900       7.24115389      -0.02863350      -0.05401059      -0.05239916
Cu       1.78641522       1.78350287       7.24546856      -0.00891653       0.01607745      -0.05919335
Cu       0.00637661       1.78124220       9.04263391      -0.06779031       0.01938611       0.04571343
Cu       1.77848502       0.00020703       9.04766002       0.05948879      -0.00739438       0.02210803
Cu       3.55663191       0.00623438       7.23895823       0.08007440      -0.05075660       0.02582454
Cu       5.35667959       1.78045867       7.23371803      -0.08466169       0.00777401       0.03868168
Cu       3.57779066       1.78576493       9.04522714      -0.05734688      -0.01582826       0.01960002
Cu       5.34716874      10.68762027       9.05238355      -0.02440714       0.01828016      -0.06419792
Cu       7.13545420       0.00476366       7.23489337      -0.03537427      -0.06615838       0.04458557
Cu       8.91394446       1.77938138       7.23601226       0.00509625       0.03690263       0.01002081
Cu       7.12533145       1.77965642       9.04256845       0.03152881       0.01151741       0.03112473
Cu       8.91400189      10.69110687       9.04790473       0.00008023       0.03609422      -0.01130013
Cu      10.69055026       3.56311930       7.23461718       0.00028206       0.00665508       0.00514014
Cu       1.78330750       5.34235353       7.23255115      -0.00141972       0.01994889       0.01616640
Cu       0.00289684       5.34635761       9.04398177      -0.01644256      -0.01902057      -0.00736651
Cu       1.77784168       3.56267422       9.04051002       0.05827348       0.03151760       0.03924725
Cu       3.57083060       3.57045450       7.23519052      -0.01911665      -0.03542973       0.00466782
Cu       5.34854717       5.35074795       7.23921390      -0.03095923      -0.03322949       0.01134141
Cu       3.55907822       5.35146101       9.05177797       0.02255050      -0.02568100      -0.01002276
Cu       5.34856513       3.57081499       9.04205568      -0.00640296      -0.02941900       0.04261717
Cu       7.12582229       3.55848525       7.23328430       0.03832635       0.05417683       0.00657392
Cu       8.90978040       5.34436108       7.23832257      -0.01013210      -0.00055721      -0.00475582
Cu       7.12879143       5.34460810       9.05107087       0.01643234       0.00644638      -0.02581657
Cu       8.90835310       3.56456756       9.05245825       0.03415988      -0.03887333      -0.04756057
Cu      10.69304491       7.13399760       7.23694149       0.02762983      -0.03528307       0.00709417
Cu       1.78298273       8.91254453       7.23017592      -0.03044835       0.00979096       0.02072030
Cu      10.69329547       8.90897462       9.04484021       0.01885938      -0.00415845       0.01978287
Cu       1.78360168       7.12311355       9.04366660      -0.02875939       0.03922208       0.02642781
Cu       3.56382477       7.13576688       7.23364539       0.01290915      -0.07019193       0.01969107
Cu       5.34700683       8.90551775       7.23862276       0.02472072       0.07097769       0.00388329
Cu       3.55840398       8.90508475       9.03900484       0.02895116       0.04627343       0.06136980
Cu       5.34884638       7.12830678       9.04990410      -0.02337564       0.01757019       0.01214042
Cu       7.11987729       7.11807217       7.24206314       0.09725089       0.08622660      -0.02424320
Cu       8.90838764       8.90862376       7.23684704       0.00872070       0.00782208      -0.00006959
Cu       7.13109508       8.91867786       9.05175647       0.00342960      -0.07968535      -0.02194068
Cu       8.91841126       7.12328979       9.04641953      -0.07406921       0.04764162       0.03040176
108
Lattice="10.6938 0.0 0.0 0.0 10.6938 0.0 0.0 0.0 10.8567" Properties=species:S:1:pos:R:3:forces:R:3 energy=-404.20995424 stress="-0.0329955406499463 -2.8178397695915252e-05 -2.158851873817082e-05 -2.8178397695915252e-05 -0.03303978995996595 -9.332282599738708e-05 -2.158851873817082e-05 -9.332282599738708e-05 -0.026707207273212012" free_energy=-404.21592951 pbc="T T T"
Cu       0.00501325      10.68679888      10.85634585      -0.03981474       0.08843850       0.02187914
Cu       1.78706156       1.79130935      10.85241095       0.01360114      -0.08764045       0.01531675
Cu      10.69222929       1.79184703       1.80563206       0.02739088      -0.09515675       0.05855692
Cu       1.78310453      10.68226053       1.80124248      -0.04482321       0.13988173       0.09685323
Cu       3.57151853      10.69014186       0.00121085      -0.06404906       0.03905964      -0.08110946
Cu       5.35707654       1.77718883      10.85379659      -0.07321473       0.06870751      -0.00627931
Cu       3.56101957       1.77610672       1.81113760      -0.04503151       0.05319130      -0.01673412
Cu       5.33593950       0.01035834       1.80798916       0.10487849      -0.05081247       0.02867240
Cu       7.12652562       0.01182050      10.85109479       0.03763712      -0.06015137       0.09806441
Cu       8.90712780       1.78314313       0.00060494       0.08324133      -0.05403614      -0.04663101
Cu       7.14226497       1.78992664       1.81086998      -0.10539027      -0.13859043      -0.02681344
Cu       8.91021190      10.69122771       1.82493864      -0.01518642       0.04830362      -0.11891179
Cu       0.00920469       3.56036436      10.85539144      -0.09487532      -0.01045035       0.00252062
Cu       1.75752656       5.34561364       0.01245795       0.19839542      -0.03487727      -0.09984110
Cu       0.00040316       5.35430674       1.81702997      -0.12586958      -0.08137624      -0.04852974
Cu       1.77372478       3.56737533       1.81899481       0.08638617      -0.05391903      -0.05959148
Cu       3.55776652       3.55853177      10.85662552       0.02202242       0.08478528       0.00547133
Cu       5.35426589       5.34245651      10.85484665      -0.12105631       0.02272994       0.10206899
Cu       3.55626083       5.35786617       1.82144050       0.11479005      -0.14241888      -0.12559430
Cu       5.34675788       3.54216266       1.79908319      -0.06557118       0.19849296       0.01825201
Cu       7.13750292       3.56008344      10.85584460      -0.08287449      -0.00727759      -0.00697914
Cu       8.91629186       5.33245225      10.84293783       0.00709507       0.10980289       0.13333228
Cu       7.13884018       5.34563396       1.80491335      -0.07464272       0.00267438       0.00195379
Cu       8.90357308       3.55221986       1.81332577       0.10276005       0.14195744      -0.01661823
Cu      10.69343652       7.12097084       0.00039594      -0.03350735       0.12367324      -0.02280313
Cu       1.78807757       8.91662347       0.00602558      -0.07449595      -0.08394181      -0.09396274
Cu      10.69059603       8.91199252       1.81470620       0.03972137      -0.03786109      -0.05163718
Cu       1.78086279       7.11354731       1.80158848      -0.03647320       0.13350820       0.07407815
Cu       3.56015765       7.14108320       0.00802278       0.02149518      -0.10433960      -0.05092901
Cu       5.35025956       8.91053624       0.00281862      -0.05534620       0.00673933      -0.01685567
Cu       3.55033059       8.91827855       1.81096346       0.06568170      -0.02322614       0.01910713
Cu       5.33691092       7.15376583       1.81987855       0.04278590      -0.19301243      -0.10263156
Cu       7.12039711       7.12395644       0.01226753       0.12273758       0.04245366      -0.07657683
Cu       8.90659718       8.93112245       0.00140681       0.03017640      -0.16256231       0.01090306
Cu       7.11967453       8.91285241       1.81358014       0.06638993       0.05080268      -0.05123634
Cu       8.91845617       7.14052883       1.80904845      -0.06860030      -0.05273130      -0.07234224
Cu      10.68562780      10.69367927       3.61190890       0.09403883       0.04988182       0.04254780
Cu       1.78518287       1.77993125       3.63549182      -0.06954002       0.00168908      -0.14763378
Cu       0.00470121       1.77722251       5.42969178      -0.05776920       0.06532780      -0.03578018
Cu       1.78865718       0.00705256       5.42397638      -0.07371778      -0.09825014       0.00107867
Cu       3.56714145       0.00789438       3.62144401      -0.00896072      -0.08025607       0.00138331
Cu       5.34983502       1.79482579       3.61772375      -0.02627986      -0.12704242       0.02924542
Cu       3.56533399       1.76949827       5.43361387       0.04262976       0.12208425       0.00621947
Cu       5.34896251       0.01144408       5.44119152      -0.01802864      -0.13600166      -0.08281348
Cu       7.12539069      10.68409570       3.62136541      -0.03794036       0.08301858      -0.00505751
Cu       8.89143733       1.78957770       3.62017389       0.15506970      -0.02029656       0.06718159
Cu       7.13157374       1.77369580       5.43655354       0.01101151       0.09552662      -0.12458584
Cu       8.91775477       0.00280595       5.42979839       0.01500483      -0.03568365      -0.01940004
Cu       0.00223009       3.58003689       3.61739284      -0.08353627      -0.14850869       0.05544235
Cu       1.77538072       5.33211026       3.61644830       0.07977676       0.15998882       0.10195683
Cu       0.00328439       5.35796242       5.42893116       0.01728412      -0.08267190       0.01665860
Cu       1.78936340       3.55466703       5.42831450      -0.01564836       0.06888373       0.04503127
Cu       3.55785752       3.56323554       3.62729469       0.07809055       0.01987427      -0.04579753
Cu       5.35116469       5.35714659       3.61187275      -0.05215713      -0.10507585      -0.05354800
Cu       3.57805512       5.36050583       5.43105777      -0.07740608      -0.08737852      -0.05472803
Cu       5.34102322       3.56922482       5.42415790       0.02458868      -0.04365045       0.00860689
Cu       7.10888706       3.55700726       3.60802991       0.12290280       0.11158476       0.10340051
Cu       8.90802352       5.35800444       3.62087610      -0.02766426      -0.09884308      -0.01774537
Cu       7.11307400       5.34395771       5.42135101       0.13421058       0.00689298       0.02138342