120
Lattice="15.9435 0.0 0.0 -6.3774 11.04598082 0.0 0.0 0.0 15.3984" Properties=species:S:1:pos:R:3:forces:R:3 energy=-180.53392783 stress="-0.0012128841881550443 0.00036670045759788935 -5.299041247874886e-09 0.00036670045759788935 0.0017517815786118355 1.6465101074080037e-08 -5.299041247874886e-09 1.6465101074080037e-08 -0.0008507039500547928" free_energy=-180.53300763 pbc="T T T"
Mg       0.00000000       0.00000000       0.00000000       0.00007065      -0.00129174       0.00000386
Mg       0.00000003       1.84099684       2.56640005      -0.00114822       0.00354381       0.00000803
Mg       3.18870000       0.00000000       0.00000000      -0.00093223       0.00007933       0.00000313
Mg       3.18870003       1.84099684       2.56640005       0.00371533       0.00218715       0.00000818
Mg       6.37740000       0.00000000       0.00000000       0.00268203      -0.00565708       0.00000294
Mg       6.37740003       1.84099684       2.56640005      -0.00178980       0.00102147       0.00000833
Mg       9.56610000       0.00000000       0.00000000      -0.00248873       0.00325329       0.00000330
Mg       9.56610003       1.84099684       2.56640005      -0.00004357       0.00341243       0.00000760
Mg      12.75480000       0.00000000       0.00000000       0.00131228      -0.00239737       0.00000350
Mg      12.75480003       1.84099684       2.56640005       0.00165091      -0.00011200       0.00000890
Mg      -1.59435000       2.76149521       0.00000000       0.00007113      -0.00129082       0.00000368
Mg      -1.59434997       4.60249205       2.56640005      -0.00114909       0.00354278       0.00000799
Mg       1.59435000       2.76149521       0.00000000      -0.00093158       0.00007893       0.00000224
Mg       1.59435003       4.60249205       2.56640005       0.00371448       0.00218730       0.00000923
Mg       4.78305000       2.76149521       0.00000000       0.00268197      -0.00565705       0.00000321
Mg       4.78305003       4.60249205       2.56640005      -0.00179025       0.00102028       0.00000977
Mg       7.97175000       2.76149521       0.00000000      -0.00248989       0.00325201       0.00000292
Mg       7.97175003       4.60249205       2.56640005      -0.00004302       0.00341250       0.00000688
Mg      11.16045000       2.76149521       0.00000000       0.00131243      -0.00239677       0.00000334
Mg      11.16045003       4.60249205       2.56640005       0.00164997      -0.00011014       0.00000846
Mg      -3.18870000       5.52299041       0.00000000       0.00007154      -0.00129132       0.00000457
Mg      -3.18869997       7.36398725       2.56640005      -0.00115026       0.00354271       0.00000844
Mg       0.00000000       5.52299041       0.00000000      -0.00093148       0.00007771       0.00000279
Mg       0.00000003       7.36398725       2.56640005       0.00371555       0.00218770       0.00000915
Mg       3.18870000       5.52299041       0.00000000       0.00268128      -0.00565786       0.00000283
Mg       3.18870003       7.36398725       2.56640005      -0.00178887       0.00102029       0.00000878
Mg       6.37740000       5.52299041       0.00000000      -0.00248832       0.00325192       0.00000324
Mg       6.37740003       7.36398725       2.56640005      -0.00004048       0.00341292       0.00000760
Mg       9.56610000       5.52299041       0.00000000       0.00131081      -0.00239755       0.00000367
Mg       9.56610003       7.36398725       2.56640005       0.00165064      -0.00011105       0.00000884
Mg      -4.78305000       8.28448562       0.00000000       0.00007142      -0.00129166       0.00000358
Mg      -4.78304997      10.12548246       2.56640005      -0.00114970       0.00354265       0.00000795
Mg      -1.59435000       8.28448562       0.00000000      -0.00093213       0.00007924       0.00000393
Mg      -1.59434997      10.12548246       2.56640005       0.00371473       0.00218686       0.00000929
Mg       1.59435000       8.28448562       0.00000000       0.00268151      -0.00565792       0.00000350
Mg       1.59435003      10.12548246       2.56640005      -0.00179006       0.00101923       0.00000696
Mg       4.78305000       8.28448562       0.00000000      -0.00248849       0.00325350       0.00000227
Mg       4.78305003      10.12548246       2.56640005      -0.00004269       0.00341244       0.00000748
Mg       7.97175000       8.28448562       0.00000000       0.00131218      -0.00239746       0.00000326
Mg       7.97175003      10.12548246       2.56640005       0.00165037      -0.00011180       0.00000922
Mg       0.00000000       0.00000000       5.13279995       0.00007244      -0.00129050       0.00000435
Mg       0.00000003       1.84099684       7.69920000      -0.00114948       0.00354351      -0.00000453
Mg       3.18870000       0.00000000       5.13279995      -0.00093173       0.00007963       0.00000422
Mg       3.18870003       1.84099684       7.69920000       0.00371510       0.00218626      -0.00000407
Mg       6.37740000       0.00000000       5.13279995       0.00268099      -0.00565709       0.00000603
Mg       6.37740003       1.84099684       7.69920000      -0.00179013       0.00102072      -0.00000244
Mg       9.56610000       0.00000000       5.13279995      -0.00249068       0.00325303       0.00000327
Mg       9.56610003       1.84099684       7.69920000      -0.00004247       0.00341213      -0.00000315
Mg      12.75480000       0.00000000       5.13279995       0.00131074      -0.00239712       0.00000309
Mg      12.75480003       1.84099684       7.69920000       0.00165066      -0.00011057      -0.00000281
Mg      -1.59435000       2.76149521       5.13279995       0.00007251      -0.00128986       0.00000348
Mg      -1.59434997       4.60249205       7.69920000      -0.00114872       0.00354370      -0.00000335
Mg       1.59435000       2.76149521       5.13279995      -0.00092983       0.00007959       0.00000382
Mg       1.59435003       4.60249205       7.69920000       0.00371589       0.00218702      -0.00000506
Mg       4.78305000       2.76149521       5.13279995       0.00268160      -0.00565613       0.00000529
Mg       4.78305003       4.60249205       7.69920000      -0.00179022       0.00101903      -0.00000350
Mg       7.97175000       2.76149521       5.13279995      -0.00248878       0.00325297       0.00000481
Mg       7.97175003       4.60249205       7.69920000      -0.00004264       0.00341176      -0.00000231
Mg      11.16045000       2.76149521       5.13279995       0.00131005      -0.00239693       0.00000307
Mg      11.16045003       4.60249205       7.69920000       0.00165158      -0.00011161      -0.00000210
Mg      -3.18870000       5.52299041       5.13279995       0.00007321      -0.00129049       0.00000428
Mg      -3.18869997       7.36398725       7.69920000      -0.00114958       0.00354301      -0.00000317
Mg       0.00000000       5.52299041       5.13279995      -0.00093079       0.00007900       0.00000494
Mg       0.00000003       7.36398725       7.69920000       0.00371489       0.00218642      -0.00000422
Mg       3.18870000       5.52299041       5.13279995       0.00268127      -0.00565582       0.00000629
Mg       3.18870003       7.36398725       7.69920000      -0.00178969       0.00101971      -0.00000241
Mg       6.37740000       5.52299041       5.13279995      -0.00249018       0.00325324       0.00000327
Mg       6.37740003       7.36398725       7.69920000      -0.00004196       0.00341063      -0.00000253
Mg       9.56610000       5.52299041       5.13279995       0.00131297      -0.00239597       0.00000371
Mg       9.56610003       7.36398725       7.69920000       0.00165205      -0.00011191      -0.00000313
Mg      -4.78305000       8.28448562       5.13279995       0.00007214      -0.00129080       0.00000432
Mg      -4.78304997      10.12548246       7.69920000      -0.00115018       0.00354282      -0.00000382
Mg      -1.59435000       8.28448562       5.13279995      -0.00093154       0.00007965       0.00000543
Mg      -1.59434997      10.12548246       7.69920000       0.00371494       0.00218718      -0.00000383
Mg       1.59435000       8.28448562       5.13279995       0.00268181      -0.00565692       0.00000568
Mg       1.59435003      10.12548246       7.69920000      -0.00179101       0.00101987      -0.00000253
Mg       4.78305000       8.28448562       5.13279995      -0.00249039       0.00325332       0.00000422
Mg       4.78305003      10.12548246       7.69920000      -0.00004193       0.00341244      -0.00000378
Mg       7.97175000       8.28448562       5.13279995       0.00131275      -0.00239668       0.00000356
Mg       7.97175003      10.12548246       7.69920000       0.00165122      -0.00011158      -0.00000323
Mg       0.00000000       0.00000000      10.26560005       0.00007245      -0.00129017      -0.00000878
Mg       0.00000003       1.84099684      12.83199995      -0.00115050       0.00354322      -0.00000458
Mg       3.18870000       0.00000000      10.26560005      -0.00093235       0.00007972      -0.00000984
Mg       3.18870003       1.84099684      12.83199995       0.00371609       0.00218775      -0.00000391
Mg       6.37740000       0.00000000      10.26560005       0.00268243      -0.00565702      -0.00000850
Mg       6.37740003       1.84099684      12.83199995      -0.00179005       0.00102212      -0.00000520
Mg       9.56610000       0.00000000      10.26560005      -0.00248856       0.00325400      -0.00000737
Mg       9.56610003       1.84099684      12.83199995      -0.00004230       0.00341270      -0.00000499
Mg      12.75480000       0.00000000      10.26560005       0.00131227      -0.00239717      -0.00000734
Mg      12.75480003       1.84099684      12.83199995       0.00164943      -0.00011266      -0.00000467
Mg      -1.59435000       2.76149521      10.26560005       0.00007273      -0.00129022      -0.00000823
Mg      -1.59434997       4.60249205      12.83199995      -0.00114989       0.00354245      -0.00000377
Mg       1.59435000       2.76149521      10.26560005      -0.00093210       0.00007932      -0.00000990
Mg       1.59435003       4.60249205      12.83199995       0.00371510       0.00218637      -0.00000458
Mg       4.78305000       2.76149521      10.26560005       0.00268281      -0.00565714      -0.00000865
Mg       4.78305003       4.60249205      12.83199995      -0.00178878       0.00102254      -0.00000445
Mg       7.97175000       2.76149521      10.26560005      -0.00248964       0.00325292      -0.00000818
Mg       7.97175003       4.60249205      12.83199995      -0.00004304       0.00341186      -0.00000367
Mg      11.16045000       2.76149521      10.26560005       0.00131124      -0.00239684      -0.00000776
Mg      11.16045003       4.60249205      12.83199995       0.00165052      -0.00010994      -0.00000442
Mg      -3.18870000       5.52299041      10.26560005       0.00007193      -0.00129021      -0.00000753
Mg      -3.18869997       7.36398725      12.83199995      -0.00114935       0.00354341      -0.00000472
Mg       0.00000000       5.52299041      10.26560005      -0.00093184       0.00007794      -0.00000865
Mg       0.00000003       7.36398725      12.83199995       0.00371632       0.00218804      -0.00000368
Mg       3.18870000       5.52299041      10.26560005       0.00268120      -0.00565700      -0.00000762
Mg       3.18870003       7.36398725      12.83199995      -0.00178934       0.00102170      -0.00000367
Mg       6.37740000       5.52299041      10.26560005      -0.00248998       0.00325241      -0.00000722
Mg       6.37740003       7.36398725      12.83199995      -0.00004354       0.00341276      -0.00000540
Mg       9.56610000       5.52299041      10.26560005       0.00131122      -0.00239741      -0.00000655
Mg       9.56610003       7.36398725      12.83199995       0.00164820      -0.00011057      -0.00000345
Mg      -4.78305000       8.28448562      10.26560005       0.00007207      -0.00128960      -0.00000875
Mg      -4.78304997      10.12548246      12.83199995      -0.00115039       0.00354339      -0.00000429
Mg      -1.59435000       8.28448562      10.26560005      -0.00093094       0.00007885      -0.00000983
Mg      -1.59434997      10.12548246      12.83199995       0.00371454       0.00218755      -0.00000444
Mg       1.59435000       8.28448562      10.26560005       0.00268186      -0.00565643      -0.00000873
Mg       1.59435003      10.12548246      12.83199995      -0.00179014       0.00102165      -0.00000365
Mg       4.78305000       8.28448562      10.26560005      -0.00249008       0.00325303      -0.00000815
Mg       4.78305003      10.12548246      12.83199995      -0.00004246       0.00341326      -0.00000400
Mg       7.97175000       8.28448562      10.26560005       0.00131318      -0.00239703      -0.00000780
Mg       7.97175003      10.12548246      12.83199995       0.00164911      -0.00011129      -0.00000437
120
Lattice="15.9435 0.0 0.0 -6.3774 11.04598082 0.0 0.0 0.0 15.3984" Properties=species:S:1:pos:R:3:forces:R:3 energy=-180.51792746 stress="-0.0012309384273846472 0.0003696639635799135 3.799081774742622e-07 0.0003696639635799135 0.0016833249561795129 -8.096048732456952e-07 3.799081774742622e-07 -8.096048732456952e-07 -0.0008309443932187979" free_energy=-180.51700328 pbc="T T T"
Mg      -0.00170021       0.00530704       0.00089634       0.01459030      -0.02255195      -0.00169644
Mg      -0.00047744       1.83445397       2.56919517      -0.00624986       0.01881027      -0.01898485
Mg       3.19629507       0.00413440       0.00097949      -0.02103354      -0.01756210       0.01148086
Mg       3.18672757       1.84434974       2.57196319       0.01027349      -0.02314360      -0.01174105
Mg       6.37848990       0.00234672       0.00114164       0.00380192      -0.01919923      -0.00667549
Mg       6.37482755       1.83543243       2.56383098       0.00735684       0.02434295       0.01009568
Mg       9.56679437       0.00128376      15.39530184       0.00048085      -0.00438063       0.00131015
Mg       9.57649685       1.83843130       2.55874966      -0.02119923       0.02987373       0.02332120
Mg       6.38084080      11.04418276       0.00806060      -0.01002822       0.01050018      -0.02059606
Mg      12.76300248       1.85155072       2.56727268      -0.01194170      -0.03113368      -0.00986616
Mg      14.34098817       2.76316900      15.39032770       0.02908318      -0.00519382       0.02274224
Mg      -1.59041530       4.60017272       2.57030555      -0.00111727       0.00953676      -0.00811519
Mg       1.60352800       2.75394340      15.39489840      -0.03099873       0.02492870       0.00755966
Mg       1.60247436       4.59216847       2.56973781      -0.02122496       0.03017540      -0.01467536
Mg       4.78321696       2.75844950       0.00085554       0.00729572       0.00440062       0.00136611
Mg       4.77817123       4.60236822       2.55938916       0.01815014      -0.00101778       0.02878572
Mg       7.96833583       2.75747811       0.00415033       0.00836766       0.01278048      -0.01812374
Mg       7.96530022       4.61244315       2.55598350       0.01879765      -0.04115121       0.04529234
Mg      11.16463064       2.76238838      15.39171340      -0.00752453      -0.00872128       0.01329348
Mg      11.16362461       4.60875832       2.56632583      -0.01507815      -0.02726265       0.01221212
Mg      12.75254422       5.52006367       0.00499863       0.01436389       0.00967494      -0.01012308
Mg      -3.19163466       7.36160099       2.56393923       0.01348705       0.01259983       0.00567122
Mg      -0.00553979       5.52069958       0.01028398       0.01816632      -0.00944822      -0.02703493
Mg      -0.00263705       7.36551745       2.57267244       0.01944962      -0.00137742       0.00196040
Mg       3.19261295       5.52410506       0.01042425      -0.02630403      -0.01113973      -0.04061996
Mg       3.18876601       7.37002918       2.55799730      -0.01808495      -0.01219640       0.03711861
Mg       6.37238178       5.51747405       0.00513105       0.01203062       0.01874024      -0.02595760
Mg       6.37753265       7.36283549       2.56502559      -0.00016695       0.00388463      -0.00021651
Mg       9.57132542       5.51994680      15.39799133      -0.01775883       0.00851614      -0.00192568
Mg       9.56875730       7.35453498       2.56235797      -0.01118880       0.02701085       0.00349709
Mg      -4.76595665       8.28423156      15.39472933      -0.04436264       0.00569943       0.00265267
Mg      -4.79066589      10.12107047       2.57480265       0.02758849       0.00989530      -0.03154656
Mg      -1.59476440       8.28119811       0.00058714       0.00839151       0.00922413       0.00408662
Mg      -1.58720769      10.12453736       2.56690327      -0.02659578       0.00043808      -0.00953390
Mg       1.59202990       8.28840528       0.00463831      -0.00191676      -0.01363301      -0.01364318
Mg       1.59557226      10.13317598       2.57162288       0.00330332      -0.01475983      -0.01106095
Mg       4.78275967       8.28457785       0.00574006       0.00190203       0.01130147      -0.02507267
Mg       4.78162172      10.12815271       2.56333515       0.01440278       0.00703862       0.00329308
Mg       7.97146225       8.28402522      15.39643763       0.01457699      -0.01379013       0.00421640
Mg       7.97572066      10.11211284       2.55996629      -0.01342688       0.02971041       0.01682990
Mg      15.93493155       0.00053010       5.12855138       0.01347633      -0.00284946       0.01086195
Mg       0.00135096       1.83793180       7.69587164       0.00442130       0.02743904       0.00890357
Mg       3.19077103       0.00254698       5.13342127      -0.01480005      -0.00256208      -0.00779017
Mg       3.19811142       1.84181932       7.70280708      -0.02391013       0.00232054      -0.02039518
Mg       6.37680301       0.00138749       5.12410031       0.00345831      -0.01669516       0.03758463
Mg       6.38470244       1.83583870       7.70190611      -0.00670617      -0.00467603      -0.00557533
Mg       9.56876671       0.00091074       5.13506736      -0.00495445      -0.00216813      -0.01873324
Mg       9.56903724       1.83581915       7.69338603      -0.00531170       0.02724197       0.01940817
Mg       6.38062161      11.04076148       5.12850226      -0.00450335       0.01718100      -0.00832265
Mg      12.75628632       1.83565578       7.69718989      -0.00542811       0.01981069       0.01538340
Mg      -1.59623723       2.76510945       5.13068883       0.01480499      -0.00965810       0.01457901
Mg      -1.60251058       4.60982647       7.69869077       0.02440994      -0.02116452       0.00289412
Mg       1.59567156       2.75921973       5.12942662      -0.00945339      -0.00815199       0.01918926
Mg       1.59929341       4.60062483       7.69007737      -0.02142483       0.00575766       0.03085384
Mg       4.78415106       2.76528950       5.13275345       0.01079537      -0.01571368      -0.00365114
Mg       4.78973192       4.59872238       7.69492556      -0.02269863       0.01662711       0.01134819
Mg       7.97007007       2.74746537       5.14138009       0.01530356       0.05248336      -0.03877575
Mg       7.95989553       4.61558131       7.69270788       0.04769274      -0.03374834       0.01827536
Mg      11.17356123       2.74661914       5.13650280      -0.03947557       0.04291241      -0.01967131
Mg      11.16333670       4.59615784       7.69971169      -0.02503475       0.00807083       0.00208681
Mg      -3.18863253       5.52412008       5.12931822      -0.00110985      -0.00468297       0.00682790
Mg      -3.20124374       7.35921605       7.69856820       0.02418554       0.01420516      -0.00615713
Mg       0.00294056       5.52060238       5.13070900      -0.00866382       0.01869380       0.01285759
Mg       0.00309071       7.36686219       7.70307824      -0.01008638      -0.00439617      -0.01313232
Mg       3.18588199       5.51612754       5.13153374       0.01780851       0.03141953      -0.00139551
Mg       3.18793057       7.36557047       7.71004925       0.01100359      -0.01467753      -0.01967315
Mg       6.37719296       5.52950577       5.13839973      -0.00602146      -0.01922760      -0.03690391
Mg       6.38192021       7.36126464       7.69722007      -0.01918292       0.02965785       0.02268585
Mg       9.56516638       5.52883506       5.13396022      -0.00192944      -0.04070969      -0.00762685
Mg       9.57211618       7.36884384       7.69142827      -0.02110295       0.00167237       0.02610280
Mg      11.15649340       8.28131056       5.12547170      -0.00032719       0.01365842       0.00939852
Mg      -4.78435306      10.12878056       7.68792668      -0.00608493      -0.00406032       0.02555008
Mg      -1.60011715       8.29308171       5.13131077       0.01465842      -0.02722097       0.01412595
Mg      -1.60158092      10.12786054       7.69931041       0.02892449      -0.00204277      -0.00177281
Mg       1.60180327       8.29005555       5.14393823      -0.01087152      -0.02417427      -0.02727844
Mg       1.60400669      10.12256466       7.70143693      -0.03722499       0.00978288       0.00378920
Mg       4.78523394       8.28619609       5.12023686      -0.02401035      -0.01171854       0.03092726
Mg       4.78099718      10.12429523       7.68957615       0.01620978      -0.00864771       0.01578661
Mg       7.95923391       8.29279462       5.13886753       0.03661987      -0.02178150      -0.01683294
Mg       7.96221110      10.14186022       7.70296445       0.03071657      -0.04631909      -0.00265896
Mg       0.00262580       0.00003192      10.27046086       0.00461180       0.00347984      -0.01343474
Mg      -0.00374181       1.84251301      12.83368684       0.01392649       0.00132055      -0.00569104
Mg       3.19151119       0.00867739      10.26404204      -0.00782479      -0.02235674       0.00904026
Mg       3.19877731       1.84484714      12.83521606      -0.02887075      -0.00729235      -0.01860418
Mg       0.00137191      11.04301531      10.27428644       0.00435601       0.00429549      -0.02654615
Mg       6.36726676       1.84025411      12.82827677       0.02839082       0.01019188       0.00623095
Mg       9.57394902       0.00082149      10.25879704      -0.02080877       0.00579392       0.01263792
Mg       9.56762139       1.83829411      12.83245759      -0.01129033       0.01567173      -0.00159222
Mg       6.38376586      11.03897833      10.26445318      -0.01881455       0.01939697      -0.00164138
Mg      12.75583805       1.83626651      12.82486726      -0.00952316       0.00558087       0.00947521
Mg      14.34849635       2.75576532      10.26545823       0.00146124       0.00924410      -0.01827492
Mg      -1.60928546       4.59280682      12.82615271       0.03336475       0.01821039       0.02862090
Mg       1.60136077       2.76541995      10.26919558      -0.02541927      -0.00899592      -0.01404181
Mg       1.58985856       4.60375880      12.82557250       0.00080269       0.00732711       0.03411890
Mg       4.78570836       2.76147378      10.25285711       0.00527555      -0.00181483       0.03331621
Mg       4.77975706       4.60177074      12.83304319      -0.00145535      -0.00156138      -0.00075643
Mg       7.97529083       2.76742314      10.26414829      -0.01749911      -0.01809160      -0.00304080
Mg       7.97668311       4.60164040      12.83385207      -0.01637411      -0.00519283       0.00931688
Mg      11.15011788       2.76377498      10.27065273       0.03190482      -0.00951720      -0.01258047
Mg      11.16238729       4.61115905      12.83810464      -0.01201296      -0.01880743      -0.01161850
Mg      12.75565202       5.52112253      10.27287118      -0.02654482       0.00004198      -0.02602069
Mg      -3.18153196       7.36121670      12.82596100      -0.01835515       0.01331589       0.00887305
Mg      -0.01529865       5.52581001      10.27261294       0.03925577      -0.02216376      -0.02839058
Mg      -0.00860659       7.35675821      12.83466018       0.02423212       0.02086040       0.00870930
Mg       3.18252763       5.51963133      10.26826320       0.00622140       0.01335600      -0.00956472
Mg       3.19234162       7.36762812      12.83554666      -0.02407421      -0.00397338       0.00556175
Mg       6.37058763       5.52377224      10.26917094       0.00470940       0.01003100      -0.00459180
Mg       6.37321541       7.35705634      12.83321134       0.01219871       0.01557482       0.00623208
Mg       9.55673469       5.51740766      10.27193803       0.02437158       0.03125372      -0.02723506
Mg       9.56295052       7.36575715      12.83563751       0.01544395       0.00395678      -0.00456659
Mg      -4.77856229       8.29023405      10.26720764      -0.01422723      -0.01867172      -0.00862079
Mg      -4.78458673      10.12730747      12.82995042       0.00651621       0.00693822       0.01130886
Mg      -1.59796519       8.28382562      10.25550486      -0.00415393       0.00993536       0.02148131
Mg      -1.59411439      10.12247585      12.83550062      -0.00001141      -0.00152975      -0.00945942
Mg       1.58222494       8.28912029      10.27618753       0.02629855      -0.01771975      -0.00868751
Mg       1.59653139      10.13392965      12.83216425      -0.00149693      -0.01785278       0.00714960
Mg       4.77861069       8.29058852      10.27387592       0.00752238      -0.01787732      -0.02663755
Mg       4.78668987      10.13019533      12.82495503      -0.00549775      -0.00793600       0.02669012
Mg       7.97712886       8.28699747      10.26791736      -0.00845078      -0.01599974      -0.00998569
Mg       7.96804119      10.12466958      12.83644624       0.01152992       0.00141655      -0.00157362
120
Lattice="15.9435 0.0 0.0 -6.3774 11.04598082 0.0 0.0 0.0 15.3984" Properties=species:S:1:pos:R:3:forces:R:3 energy=-180.4702942 stress="-0.0012805567085204096 0.000364765265210391 2.1706033871992947e-06 0.000364765265210391 0.0016272001077498187 1.6108336412444548e-06 2.1706033871992947e-06 1.6108336412444548e-06 -0.0008887535753012033" free_energy=-180.46936001 pbc="T T T"
Mg      -0.00339472       0.01060503       0.00179222       0.02603612      -0.04180918      -0.00436864
Mg      -0.00095728       1.82791851       2.57198290      -0.00665934       0.03137330      -0.03626355
Mg       3.20388185       0.00826162       0.00196345      -0.04065647      -0.03560064       0.02259931
Mg       3.18475928       1.84769347       2.57752185       0.01668240      -0.04877042      -0.02339359
Mg       6.37958123       0.00468571       0.00228050       0.00656613      -0.02998841      -0.01474417
Mg       6.37225819       1.82987751       2.56126607       0.01771508       0.05685012       0.02165446
Mg       9.56748887       0.00256565      15.39220415       0.00616043      -0.01131598       0.00308688
Mg       9.58688532       1.83587747       2.55110852      -0.03900152       0.05765497       0.04915563
Mg       6.38427771      11.04238867       0.01611304      -0.02285479       0.02016346      -0.03850535
Mg      12.77120035       1.86209212       2.56814130      -0.02591534      -0.06001240      -0.01995170
Mg      14.33283798       2.76484059      15.38226448       0.06072010      -0.00917299       0.04419008
Mg      -1.58648099       4.59785704       2.57420796       0.00084134       0.01749358      -0.01564305
Mg       1.61269363       2.74640142      15.39139973      -0.05543892       0.04890442       0.01298292
Mg       1.61059027       4.58185672       2.57306987      -0.05020355       0.05460609      -0.02746852
Mg       4.78338695       2.75540545       0.00171153       0.01030848       0.01196310       0.00474195
Mg       4.77329959       4.60224384       2.55238966       0.03791048      -0.00007926       0.06634274
Mg       7.96492523       2.75346588       0.00829327       0.01778251       0.01892171      -0.03191950
Mg       7.95885799       4.62237779       2.54558496       0.03536562      -0.08600995       0.09326473
Mg      11.16880867       2.76327781      15.38503219      -0.02054697      -0.01405288       0.02385661
Mg      11.16679344       4.61501355       2.56625654      -0.03184000      -0.06164862       0.02421053
Mg      12.75029430       5.51714057       0.00999325       0.03066991       0.01853176      -0.01975121
Mg      -3.19456408       7.35921969       2.56148072       0.03267739       0.02388576       0.01386578
Mg      -0.01107225       5.51840489       0.02055717       0.04329655      -0.01538781      -0.05196397
Mg      -0.00526627       7.36704699       2.57894574       0.03633313      -0.00587285       0.00141625
Mg       3.19651566       5.52521507       0.02083219      -0.05179046      -0.01255192      -0.08069940
Mg       3.18882497       7.37606614       2.54960917      -0.03236911      -0.02494880       0.07297925
Mg       6.36736822       5.51196509       0.01025179       0.02684145       0.03027839      -0.05110810
Mg       6.37766533       7.36168527       2.56365128      -0.00104719       0.00558503       0.00047788
Mg       9.57654389       5.51690639      15.39758188      -0.03373578       0.01467307      -0.00441639
Mg       9.57141014       7.34509343       2.55831728      -0.02073764       0.05288010       0.00566213
Mg      -4.74888088       8.28397949      15.39105974      -0.09099434       0.01846906       0.00759977
Mg      -4.79827097      10.11666235       2.58319293       0.05716741       0.02013419      -0.06519169
Mg      -1.59517543       8.27791414       0.00117582       0.01839981       0.01532491       0.00681774
Mg      -1.58007585      10.12359238       2.56740280      -0.06318090      -0.00086449      -0.01752343