108
Lattice="10.911 0.0 0.0 0.0 10.911 0.0 0.0 0.0 10.8567" Properties=species:S:1:pos:R:3:forces:R:3 energy=-405.32132042 stress="0.00901639086631216 -4.174321303390723e-08 -5.740315943074833e-08 -4.174321303390723e-08 0.009016403074704011 -6.747071365079802e-09 -5.740315943074833e-08 -6.747071365079802e-09 0.007708046547223716" free_energy=-405.33477983 pbc="T T T"
Cu       0.00000000       0.00000000       0.00000000      -0.00003008       0.00001555       0.00000186
Cu       1.81850364       1.81850364       0.00000000      -0.00550242      -0.00545769      -0.00002326
Cu       0.00000000       1.81850364       1.80945362      -0.00001611      -0.00630946      -0.01124910
Cu       1.81850364       0.00000000       1.80945362      -0.00630535       0.00001453      -0.01123885
Cu       3.63699636       0.00000000       0.00000000       0.00277055      -0.00000924       0.00000409
Cu       5.45550000       1.81850364       0.00000000       0.00002619      -0.00277784       0.00001065
Cu       3.63699636       1.81850364       1.80945362       0.00007280      -0.00007111       0.00477084
Cu       5.45550000       0.00000000       1.80945362       0.00002153      -0.00002014      -0.00568149
Cu       7.27400364       0.00000000       0.00000000      -0.00274243       0.00000388       0.00002539
Cu       9.09249636       1.81850364       0.00000000       0.00546806      -0.00549171       0.00000653
Cu       7.27400364       1.81850364       1.80945362      -0.00005667      -0.00008938       0.00476018
Cu       9.09249636       0.00000000       1.80945362       0.00628059      -0.00000835      -0.01122813
Cu       0.00000000       3.63699636       0.00000000      -0.00000979       0.00273183      -0.00002349
Cu       1.81850364       5.45550000       0.00000000      -0.00275989      -0.00001051      -0.00003371
Cu       0.00000000       5.45550000       1.80945362      -0.00001905      -0.00000405      -0.00570341
Cu       1.81850364       3.63699636       1.80945362      -0.00006299       0.00004024       0.00475468
Cu       3.63699636       3.63699636       0.00000000       0.00547315       0.00547477      -0.00002208
Cu       5.45550000       5.45550000       0.00000000      -0.00000501       0.00001379      -0.00000479
Cu       3.63699636       5.45550000       1.80945362       0.00632151       0.00000095      -0.01121227
Cu       5.45550000       3.63699636       1.80945362      -0.00000098       0.00629707      -0.01121570
Cu       7.27400364       3.63699636       0.00000000      -0.00545935       0.00544573       0.00000555
Cu       9.09249636       5.45550000       0.00000000       0.00276688      -0.00000663      -0.00001331
Cu       7.27400364       5.45550000       1.80945362      -0.00630504       0.00002132      -0.01123123
Cu       9.09249636       3.63699636       1.80945362       0.00006655       0.00004423       0.00474530
Cu       0.00000000       7.27400364       0.00000000      -0.00000307      -0.00274636      -0.00001551
Cu       1.81850364       9.09249636       0.00000000      -0.00547664       0.00546752      -0.00000827
Cu       0.00000000       9.09249636       1.80945362      -0.00003400       0.00631343      -0.01125460
Cu       1.81850364       7.27400364       1.80945362      -0.00004941      -0.00005682       0.00476287
Cu       3.63699636       7.27400364       0.00000000       0.00548456      -0.00546767      -0.00001445
Cu       5.45550000       9.09249636       0.00000000       0.00003096       0.00276269       0.00003508
Cu       3.63699636       9.09249636       1.80945362       0.00009676       0.00007309       0.00478091
Cu       5.45550000       7.27400364       1.80945362       0.00002349      -0.00627673      -0.01121745
Cu       7.27400364       7.27400364       0.00000000      -0.00548394      -0.00545069       0.00001182
Cu       9.09249636       9.09249636       0.00000000       0.00544863       0.00550289       0.00001814
Cu       7.27400364       9.09249636       1.80945362      -0.00006232       0.00006941       0.00475344
Cu       9.09249636       7.27400364       1.80945362       0.00003148      -0.00003283       0.00474558
Cu       0.00000000       0.00000000       3.61889638      -0.00001628       0.00001226       0.00567340
Cu       1.81850364       1.81850364       3.61889638      -0.00006768      -0.00006281      -0.00472805
Cu       0.00000000       1.81850364       5.42835000       0.00001915      -0.00275073       0.00001020
Cu       1.81850364       0.00000000       5.42835000      -0.00276447       0.00002257      -0.00000029
Cu       3.63699636       0.00000000       3.61889638       0.00631365      -0.00000495       0.01125030
Cu       5.45550000       1.81850364       3.61889638       0.00000695      -0.00629538       0.01124043
Cu       3.63699636       1.81850364       5.42835000       0.00545810      -0.00544729       0.00000051
Cu       5.45550000       0.00000000       5.42835000       0.00000051      -0.00000510      -0.00002985
Cu       7.27400364       0.00000000       3.61889638      -0.00629588      -0.00000772       0.01121440
Cu       9.09249636       1.81850364       3.61889638       0.00006222      -0.00008397      -0.00478828
Cu       7.27400364       1.81850364       5.42835000      -0.00547885      -0.00546658      -0.00002580
Cu       9.09249636       0.00000000       5.42835000       0.00276302       0.00000537      -0.00002737
Cu       0.00000000       3.63699636       3.61889638       0.00000981       0.00626946       0.01125353
Cu       1.81850364       5.45550000       3.61889638      -0.00625780      -0.00000437       0.01126790
Cu       0.00000000       5.45550000       5.42835000       0.00002547      -0.00002664       0.00002267
Cu       1.81850364       3.63699636       5.42835000      -0.00544435       0.00546336       0.00002604
Cu       3.63699636       3.63699636       3.61889638       0.00007740       0.00007604      -0.00471691
Cu       5.45550000       5.45550000       3.61889638      -0.00001184       0.00002141       0.00571612
Cu       3.63699636       5.45550000       5.42835000       0.00278189      -0.00000432       0.00001976
Cu       5.45550000       3.63699636       5.42835000      -0.00002833       0.00278276       0.00000136
Cu       7.27400364       3.63699636       3.61889638      -0.00008546       0.00005727      -0.00476227
Cu       9.09249636       5.45550000       3.61889638       0.00626818       0.00000056       0.01124642
Cu       7.27400364       5.45550000       5.42835000      -0.00280683       0.00000906      -0.00000872
Cu       9.09249636       3.63699636       5.42835000       0.00547586       0.00544999       0.00000759
Cu       0.00000000       7.27400364       3.61889638       0.00000648      -0.00628500       0.01124041
Cu       1.81850364       9.09249636       3.61889638      -0.00004766       0.00006841      -0.00473982
Cu       0.00000000       9.09249636       5.42835000       0.00000282       0.00277565      -0.00000426
Cu       1.81850364       7.27400364       5.42835000      -0.00543343      -0.00548547       0.00001301
Cu       3.63699636       7.27400364       3.61889638       0.00009820      -0.00007306      -0.00473694
Cu       5.45550000       9.09249636       3.61889638       0.00000919       0.00627335       0.01122108
Cu       3.63699636       9.09249636       5.42835000       0.00549193       0.00545012      -0.00000671
Cu       5.45550000       7.27400364       5.42835000      -0.00001383      -0.00278037      -0.00001167
Cu       7.27400364       7.27400364       3.61889638      -0.00010310      -0.00004701      -0.00475958
Cu       9.09249636       9.09249636       3.61889638       0.00003484       0.00008165      -0.00478636
Cu       7.27400364       9.09249636       5.42835000      -0.00550270       0.00545576      -0.00002946
Cu       9.09249636       7.27400364       5.42835000       0.00544525      -0.00545573      -0.00000904
Cu       0.00000000       0.00000000       7.23780362       0.00000531       0.00002313      -0.00567824
Cu       1.81850364       1.81850364       7.23780362      -0.00005905      -0.00003706       0.00474999
Cu       0.00000000       1.81850364       9.04724638       0.00000770      -0.00628111       0.01124167
Cu       1.81850364       0.00000000       9.04724638      -0.00629950       0.00002708       0.01124340
Cu       3.63699636       0.00000000       7.23780362       0.00628963       0.00000661      -0.01125556
Cu       5.45550000       1.81850364       7.23780362      -0.00002985      -0.00626037      -0.01124780
Cu       3.63699636       1.81850364       9.04724638       0.00004008      -0.00003597      -0.00476911
Cu       5.45550000       0.00000000       9.04724638      -0.00001243      -0.00000634       0.00571181
Cu       7.27400364       0.00000000       7.23780362      -0.00629543       0.00000140      -0.01124386
Cu       9.09249636       1.81850364       7.23780362       0.00009272      -0.00004703       0.00477850
Cu       7.27400364       1.81850364       9.04724638      -0.00004675      -0.00006685      -0.00473570
Cu       9.09249636       0.00000000       9.04724638       0.00630523       0.00000933       0.01125462
Cu       0.00000000       3.63699636       7.23780362       0.00003670       0.00628330      -0.01122978
Cu       1.81850364       5.45550000       7.23780362      -0.00626726      -0.00002077      -0.01123459
Cu       0.00000000       5.45550000       9.04724638       0.00001232      -0.00002026       0.00568458
Cu       1.81850364       3.63699636       9.04724638      -0.00006771       0.00005818      -0.00478191
Cu       3.63699636       3.63699636       7.23780362       0.00004874       0.00008838       0.00473850
Cu       5.45550000       5.45550000       7.23780362      -0.00003271      -0.00000072      -0.00571249
Cu       3.63699636       5.45550000       9.04724638       0.00629286      -0.00001126       0.01119097
Cu       5.45550000       3.63699636       9.04724638      -0.00002524       0.00631470       0.01121797
Cu       7.27400364       3.63699636       7.23780362      -0.00008767       0.00006834       0.00475887
Cu       9.09249636       5.45550000       7.23780362       0.00629483      -0.00001025      -0.01123294
Cu       7.27400364       5.45550000       9.04724638      -0.00630449       0.00001246       0.01123889
Cu       9.09249636       3.63699636       9.04724638       0.00009256       0.00006247      -0.00475328
Cu       0.00000000       7.27400364       7.23780362       0.00003268      -0.00631159      -0.01122606
Cu       1.81850364       9.09249636       7.23780362      -0.00005156       0.00005984       0.00474685
Cu       0.00000000       9.09249636       9.04724638      -0.00001544       0.00630090       0.01126019
Cu       1.81850364       7.27400364       9.04724638      -0.00005595      -0.00008279      -0.00477715
Cu       3.63699636       7.27400364       7.23780362       0.00007813      -0.00009050       0.00475171
Cu       5.45550000       9.09249636       7.23780362      -0.00002296       0.00626148      -0.01125683
Cu       3.63699636       9.09249636       9.04724638       0.00007534       0.00005308      -0.00476965
Cu       5.45550000       7.27400364       9.04724638      -0.00000300      -0.00630832       0.01123050
Cu       7.27400364       7.27400364       7.23780362      -0.00010406      -0.00006944       0.00474475
Cu       9.09249636       9.09249636       7.23780362       0.00007866       0.00005866       0.00476706
Cu       7.27400364       9.09249636       9.04724638      -0.00005924       0.00005537      -0.00472702
Cu       9.09249636       7.27400364       9.04724638       0.00005728      -0.00007310      -0.00473464
108
Lattice="10.911 0.0 0.0 0.0 10.911 0.0 0.0 0.0 10.8567" Properties=species:S:1:pos:R:3:forces:R:3 energy=-405.30244645 stress="0.008761635663483026 -9.853888638143334e-06 -2.2383312510260795e-05 -9.853888638143334e-06 0.00878178459686584 6.454094926710842e-07 -2.2383312510260795e-05 6.454094926710842e-07 0.007623059462633747" free_energy=-405.31588959 pbc="T T T"
Cu       0.00229666      10.90398325       0.00505206      -0.02949935       0.05807355      -0.01530253
Cu       1.82039495       1.82472105      10.85493123      -0.01331571      -0.04913888       0.03068342
Cu      10.90981943       1.82461576       1.81396403      -0.01708282      -0.04366669      -0.04359141
Cu       1.81420503      10.91009133       1.81006474       0.03105947       0.02477537      -0.03873186
Cu       3.63145510      10.90823210      10.85040919       0.03380763       0.02472300       0.05302085
Cu       5.45575881       1.81914084       0.00163068      -0.01776049      -0.02147507      -0.02096974
Cu       3.63458361       1.82347807       1.80568124       0.01216566      -0.04220969       0.00645299
Cu       5.45780691      10.90785676       1.81425782      -0.02376748       0.02380031      -0.05040355
Cu       7.26921600       0.00447504       0.00401057       0.00534807      -0.02229085      -0.05762565
Cu       9.09544342       1.82747564      10.85258129      -0.00586524      -0.08652688       0.03704399
Cu       7.26984000       1.82004514       1.80131033       0.04330746       0.00407073       0.05579013
Cu       9.08209207      10.90516862       1.80784748       0.07739662       0.07702235      -0.00519390
Cu       0.00629216       3.63068271      10.85537624      -0.04300252       0.07815005       0.01128340
Cu       1.81570398       5.45226031      10.85449023       0.03026571       0.00520559       0.01486148
Cu      10.91092504       5.45795988       1.81015073      -0.01911967      -0.03150034      -0.02276206
Cu       1.81790877       3.64037812       1.80748552      -0.01938955      -0.00208447       0.00390583
Cu       3.64370652       3.63786772       0.00052112      -0.03253512       0.01941397      -0.00696616
Cu       5.45770871       5.44921668      10.85640481       0.01261429       0.03111542      -0.00985627
Cu       3.63488465       5.45035339       1.81183873       0.02134669       0.04046106      -0.03122540
Cu       5.45892213       3.63520936       1.80721432      -0.01430145       0.01783737       0.01784107
Cu       7.27469550       3.63624198      10.85570781      -0.00491035       0.02407491      -0.00575368
Cu       9.08860648       5.45706813       0.00339923       0.04668820      -0.00653550      -0.03042827
Cu       7.27615998       5.45565985       1.81299562      -0.00860644      -0.00630153      -0.03748164
Cu       9.09315506       3.63691311       1.80799980       0.00846525       0.00532183       0.02436216
Cu       0.00814321       7.27903634       0.00060439      -0.07031284      -0.05309213      -0.01198638
Cu       1.81497218       9.09135649      10.85566666       0.03670866       0.00592698       0.01475326
Cu      10.90954545       9.09365107       1.80456050       0.01301956       0.00375392       0.03478214
Cu       1.81066256       7.26658798       1.81275981       0.06066196       0.03796298      -0.01464958
Cu       3.63937169       7.27292399       0.00481592      -0.03009933      -0.02642062      -0.01264695
Cu       5.44706820       9.08763431       0.00432813       0.03856287       0.05389148      -0.03987405
Cu       3.63806324       9.09700162       1.80882024      -0.02369427      -0.03455277       0.01152904
Cu       5.45555794       7.27148069       1.80161291      -0.00462380       0.00206976       0.05602500
Cu       7.27338826       7.27354581       0.00297832      -0.00493277      -0.03206252      -0.04541985
Cu       9.09084924       9.08973599       0.00444994       0.00694546       0.00887679      -0.06464442
Cu       7.27409802       9.09486961       1.79938392      -0.00882783      -0.03546661       0.07671084
Cu       9.09468085       7.27994108       1.80825243      -0.00837889      -0.02512590       0.02300357
Cu       0.00709870       0.00592936       3.61701893      -0.05404148      -0.02077116       0.01982143
Cu       1.81286680       1.82218086       3.61136889       0.04752662      -0.00916258       0.05364357
Cu       0.00410024       1.81884941       5.43155794      -0.02886846      -0.01086721      -0.00737955
Cu       1.82544707      10.90905773       5.43005939      -0.04232903       0.03838185      -0.03068536
Cu       3.63955979      10.91072886       3.61150753      -0.02697967       0.02756365       0.04082474
Cu       5.45834210       1.81338441       3.61969652      -0.03186364       0.03897698      -0.00171429
Cu       3.63919155       1.81823512       5.43388333      -0.01106777      -0.02504751      -0.06919428
Cu       5.45616230       0.00163840       5.42465481      -0.00385050      -0.00296556       0.03613984
Cu       7.27665861       0.00470046       3.61832662       0.00810563      -0.02586576       0.00935675
Cu       9.09519400       1.82159974       3.62446587      -0.00697543      -0.01520193      -0.02529949
Cu       7.27584705       1.81929992       5.42593221      -0.03057006       0.00584160       0.01653471
Cu       9.08790436      10.90058720       5.43365589       0.05290284       0.06743438      -0.04312330
Cu       0.00158831       3.64182393       3.62886587      -0.01895383       0.00346661      -0.03070023
Cu       1.81745313       5.45343684       3.61975102       0.01066211       0.00413338       0.02200825
Cu       0.00823933       5.45409641       5.43728148      -0.05377440       0.01508950      -0.00643415
Cu       1.81710517       3.63528083       5.43690562       0.02318424       0.00949935      -0.05562570
Cu       3.63114283       3.63392863       3.60979543       0.03186343       0.00198191       0.05591879
Cu       5.45775323       5.45977351       3.61363240      -0.02770327      -0.01966163       0.03371019
Cu       3.63858773       5.45355250       5.42625097      -0.00406878       0.01069366       0.00698994
Cu       5.44300265       3.63957365       5.42486196       0.07329018      -0.02618525      -0.00060399
Cu       7.27271963       3.63704437       3.61848100      -0.00312206      -0.00335684      -0.00439205
Cu       9.09554130       5.45731472       3.61927582      -0.00080724      -0.01626971       0.01599316
Cu       7.27409409       5.45051367       5.43270831      -0.02606799       0.02550519      -0.04147320
Cu       9.08541261       3.64412179       5.42994224       0.06807289      -0.02087919       0.00468391
Cu       0.00243599       7.27043389       3.61940371      -0.02034168       0.02286538       0.03492567
Cu       1.81495560       9.09266788       3.61368462       0.00355172      -0.00757952       0.01993138
Cu       0.00383358       9.09961099       5.43216407      -0.01459672      -0.05175221      -0.02706552
Cu       1.81996767       7.26839615       5.42848441      -0.00308280       0.03890459       0.00630705
Cu       3.63521078       7.27907812       3.61707843       0.01642054      -0.00773904      -0.00562567
Cu       5.46470136       9.09877499       3.62101333      -0.03690239      -0.04342714      -0.02772602
Cu       3.63530636       9.09869905       5.42364481       0.02035203      -0.02857719       0.01425440
Cu       5.45569040       7.27975450       5.42675645      -0.01392474      -0.05286794       0.00013586
Cu       7.27248614       7.26577554       3.61842401       0.01894841       0.06699954      -0.02095182
Cu       9.10352935       9.09894378       3.61686944      -0.05924206      -0.03682603      -0.00040489
Cu       7.27321095       9.08957734       5.42329317       0.01110414       0.01849584       0.01295925
Cu       9.09024990       7.27425939       5.42205594       0.04323452      -0.00764736       0.03733920
Cu      10.91035527       0.00454912       7.23504167      -0.00158310      -0.00617729       0.04019715
Cu       1.82314518       1.82245287       7.24261390      -0.03077718      -0.05173805      -0.01892238
Cu       0.00180141       1.82151104       9.05178654      -0.02209314      -0.05672739      -0.02478826
Cu       1.81729317       0.00636635       9.05237617      -0.02088014      -0.04179331      -0.01945677
Cu       3.63156127      10.90948883       7.23755891       0.05792349       0.00626591       0.00773086
Cu       5.45883484       1.81958634       7.24156851      -0.02213200      -0.02716846      -0.03846301
Cu       3.63684099       1.82485864       9.04859826       0.01904314      -0.03237887       0.00177762
Cu       5.44727572      10.90872909       9.04934878       0.04225657       0.00315167      -0.01343188
Cu       7.27537209       0.00108335       7.23269207      -0.03042180      -0.02098337       0.03687484
Cu       9.08663290       1.81907854       7.23492193       0.04014892      -0.00928293       0.01835243
Cu       7.27122984       1.81931585       9.04300847      -0.00054343      -0.02737547       0.02923913
Cu       9.09064815      10.90790117       9.05391305       0.01653026       0.02346342      -0.02188834
Cu       0.00500815       3.63237086       7.24103805      -0.06016758       0.03946117      -0.01244859
Cu       1.82302701       5.45508276       7.24511941      -0.01228583       0.00799264      -0.03558606
Cu       0.00346315       5.45909070       9.04960272      -0.03658820      -0.03619971       0.00221837
Cu       1.82046500       3.63444166       9.04416210       0.00701141       0.02877220       0.02992932
Cu       3.63347440       3.62601586       7.23540559       0.04245851       0.07783598       0.02212596
Cu       5.46217022       5.45056866       7.23511550      -0.06324270       0.03532800       0.00145652
Cu       3.63816428       5.45550993       9.04569756       0.02350716      -0.00316495       0.01455522
Cu       5.45624577       3.63996132       9.04831001      -0.00426221      -0.01007622      -0.00424919
Cu       7.27635976       3.63606609       7.23974132      -0.02646783      -0.02338242      -0.02566779
Cu       9.08503564       5.45528527       7.24142216       0.09163763      -0.00936584      -0.03799157
Cu       7.27834174       5.45116179       9.03470820      -0.04017715       0.03357061       0.09892835
Cu       9.09309625       3.62964715       9.05023849       0.01458497       0.04902990      -0.02362728
Cu      10.91029940       7.27456501       7.24008450       0.00566265      -0.01242021      -0.03546589
Cu       1.81545685       9.09449035       7.23704875       0.00513057      -0.01649530       0.02385074
Cu      10.90739686       9.08804238       9.04845495       0.01507334       0.04284575      -0.00669468
Cu       1.82180487       7.27156241       9.05324341       0.00120668       0.01598638      -0.03735845
Cu       3.63764480       7.27657634       7.23626056       0.00750095      -0.01126571      -0.00251992
Cu       5.46025589       9.08867151       7.23792728      -0.03968357       0.04945144      -0.02097705
Cu       3.63202542       9.09005044       9.04455642       0.00819793       0.00179934       0.00856046
Cu       5.45536852       7.27668643       9.05053944       0.00396146      -0.04901661      -0.01018666
Cu       7.27457352       7.27654197       7.23429886      -0.01176584      -0.00330616       0.01083114
Cu       9.08909213       9.08998781       7.24113304       0.01178083       0.00446722      -0.00877845
Cu       7.26919625       9.09213957       9.04917323       0.01632204       0.01104631       0.01168560
Cu       9.09147095       7.26707886       9.04208000      -0.00569893       0.03819552       0.04918776
108
Lattice="10.911 0.0 0.0 0.0 10.911 0.0 0.0 0.0 10.8567" Properties=species:S:1:pos:R:3:forces:R:3 energy=-405.24651307 stress="0.00849793361308796 -2.5541310158156565e-05 -2.518197399476122e-05 -2.5541310158156565e-05 0.008511787928343737 1.2208042325716605e-05 -2.518197399476122e-05 1.2208042325716605e-05 0.007395620436705351" free_energy=-405.25990637 pbc="T T T"
Cu       0.00458884      10.89697544       0.01010183      -0.05991535       0.12640241      -0.04372543
Cu       1.82228430       1.83093094      10.85316712      -0.01747668      -0.07960158       0.05849840
Cu      10.90863635       1.83072123       1.81846794      -0.03868191      -0.07035751      -0.07184266
Cu       1.80991122      10.90918626       1.81067000       0.05761892       0.04679925      -0.06202169
Cu       3.62591908      10.90546790      10.84412653       0.06048866       0.05187050       0.10157864
Cu       5.45601500       1.81977477       0.00325810      -0.03673211      -0.04295897      -0.04523669
Cu       3.63217283       1.82844607       1.80190984       0.03224328      -0.09094446       0.00840296
Cu       5.46011022      10.90471712       1.81905452      -0.05759958       0.06201585      -0.11598220
Cu       7.26442913       0.00894669       0.00801246       0.01475658      -0.04153104      -0.11116872
Cu       9.09838950       1.83643456      10.84846823      -0.01713358      -0.15790154       0.07286508
Cu       7.26568291       1.82158719       1.79317552       0.09194254       0.01244989       0.11782941
Cu       9.07169956      10.89934891       1.80624058       0.14184338       0.15460948      -0.00051550
Cu       0.01257766       3.62438096      10.85405433      -0.07837629       0.14800082       0.01768810
Cu       1.81290902       5.44902127      10.85228273       0.06545453       0.01246664       0.02641249
Cu      10.91084725       5.46041497       1.81084447      -0.03907620      -0.06430723      -0.03777413
Cu       1.81731096       3.64375944       1.80551796      -0.03282327      -0.00729409       0.00330126
Cu       3.65041176       3.63874201       0.00104127      -0.07086372       0.03167392      -0.01784571
Cu       5.45991928       5.44293795      10.85610809       0.01796628       0.06620972      -0.01709215
Cu       3.63277621       5.44521289       1.81421928       0.02907626       0.07578023      -0.04501060
Cu       5.46234218       3.63342508       1.80497784      -0.02603490       0.02676962       0.04685823
Cu       7.27538672       3.63549130      10.85471485      -0.00653789       0.04588338      -0.01311113
Cu       9.08472380       5.45863538       0.00679391       0.08632048      -0.01664740      -0.05832907
Cu       7.27831490       5.45581882       1.81653197      -0.00322202      -0.01308213      -0.05989278
Cu       9.09381507       3.63683073       1.80654978       0.01366362       0.01065895       0.04813235
Cu       0.01627572       7.28406107       0.00120705      -0.13291331      -0.09773183      -0.01805955
Cu       1.81144629       9.09021749      10.85463560       0.07221835       0.00216023       0.02764293
Cu      10.90809287       9.09480644       1.79967271       0.02375680      -0.00033800       0.07814000
Cu       1.80283064       7.25917810       1.81606383       0.13083889       0.08428638      -0.03511405
Cu       3.64174254       7.27184042       0.00963000      -0.06628370      -0.04472307      -0.02157277
Cu       5.43864229       9.08278044       0.00865029       0.07017401       0.10003489      -0.07273387
Cu       3.63912663       9.10150176       1.80818870      -0.04898276      -0.07110130       0.02276279
Cu       5.45561511       7.26895795       1.79378089      -0.00843760       0.01136003       0.10950137
Cu       7.27277222       7.27308308       0.00594980       0.00368278      -0.05477865      -0.08478981
Cu       9.08920331       9.08697703       0.00889023       0.00266671       0.01119744      -0.12099435
Cu       7.27419098       9.09723741       1.78932595      -0.01752687      -0.07163480       0.15932363
Cu       9.09686415       7.28587470       1.80705472      -0.01249799      -0.05471288       0.04198804
Cu       0.01418921       0.01185567       3.61514463      -0.10727898      -0.03589223       0.04280171
Cu       1.80723716       1.82585667       3.60384954       0.09805842      -0.02866397       0.11527732
Cu       0.00819602       1.81919354       5.43476479      -0.06630566      -0.02351700      -0.01904118
Cu       1.83238417      10.90712114       5.43176422      -0.08226082       0.08136690      -0.06591747
Cu       3.64211919      10.91046187       3.60412497      -0.05646063       0.05467509       0.06727638
Cu       5.46117950       1.80827119       3.62049655      -0.05599021       0.07475957      -0.01527967
Cu       3.64138499       1.81796267       5.43940625      -0.02946474      -0.04436912      -0.13130655
Cu       5.45682405       0.00327636       5.42096516      -0.00978581      -0.00672226       0.06907571
Cu       7.27931478       0.00939699       3.61775827       0.02505822      -0.04174695       0.00642116
Cu       9.09789065       1.82469345       3.63003145      -0.01386040      -0.02983413      -0.04847583
Cu       7.27768588       1.82009719       5.42351692      -0.05477285       0.01735242       0.02924457
Cu       9.08332043      10.89018465       5.43895526       0.08587981       0.12491105      -0.08076967
Cu       0.00317368       3.64665194       3.63883069      -0.03709587      -0.00748084      -0.07003481
Cu       1.81640436       5.45137422       3.62060913       0.02413624       0.00192913       0.03478281
Cu       0.01647048       5.45269500       5.44621199      -0.11098416       0.02258037      -0.01621725
Cu       1.81571020       3.63356671       5.44545289       0.04814716       0.01706749      -0.10174026
Cu       3.62529410       3.63086122       3.60070305       0.06745427       0.00103716       0.12549382
Cu       5.46000232       5.46404397       3.60837352      -0.06766204      -0.05497635       0.07702560
Cu       3.64017856       5.45160652       5.42415302      -0.01304976       0.02768798       0.01321684
Cu       5.43051632       3.64214690       5.42137381       0.14304078      -0.04726391      -0.01347182
Cu       7.27143519       3.63709183       3.61806508      -0.00385869      -0.00858811      -0.00289237
Cu       9.09858612       5.45912682       3.61965787      -0.00130146      -0.02992181       0.01829442
Cu       7.27418050       5.44553127       5.43706044      -0.04848781       0.06198931      -0.08285770