108
Lattice="10.8567 0.0 0.0 0.0 10.8567 0.0 0.0 0.0 10.8567" Properties=species:S:1:pos:R:3:forces:R:3 energy=-405.25882653 stress="-0.00031054422686031 5.859528767379203e-08 1.3225757837746623e-08 5.859528767379203e-08 -0.00031051894874835014 -1.522928226715515e-09 1.3225757837746623e-08 -1.522928226715515e-09 -0.00031057450442107965" free_energy=-405.27218186 pbc="T T T"
Cu       0.00000000       0.00000000       0.00000000       0.00000500       0.00000525      -0.00000926
Cu       1.80945362       1.80945362       0.00000000      -0.00955915      -0.00955173      -0.00001781
Cu       0.00000000       1.80945362       1.80945362       0.00001535      -0.00953806      -0.00953788
Cu       1.80945362       0.00000000       1.80945362      -0.00954683      -0.00001941      -0.00952468
Cu       3.61889638       0.00000000       0.00000000       0.00180681      -0.00002789      -0.00001125
Cu       5.42835000       1.80945362       0.00000000       0.00002496      -0.00181743      -0.00002583
Cu       3.61889638       1.80945362       1.80945362      -0.00534314       0.00531014       0.00534807
Cu       5.42835000       0.00000000       1.80945362       0.00001284      -0.00003363      -0.00181478
Cu       7.23780362       0.00000000       0.00000000      -0.00180912      -0.00000210      -0.00000140
Cu       9.04724638       1.80945362       0.00000000       0.00953504      -0.00952167      -0.00000076
Cu       7.23780362       1.80945362       1.80945362       0.00532098       0.00533945       0.00531137
Cu       9.04724638       0.00000000       1.80945362       0.00953395      -0.00000753      -0.00953436
Cu       0.00000000       3.61889638       0.00000000      -0.00001131       0.00182868       0.00001979
Cu       1.80945362       5.42835000       0.00000000      -0.00182609       0.00001740       0.00002106
Cu       0.00000000       5.42835000       1.80945362      -0.00000696       0.00000315      -0.00180275
Cu       1.80945362       3.61889638       1.80945362       0.00529351      -0.00528923       0.00534556
Cu       3.61889638       3.61889638       0.00000000       0.00955620       0.00958056      -0.00002039
Cu       5.42835000       5.42835000       0.00000000       0.00001836       0.00000886       0.00000046
Cu       3.61889638       5.42835000       1.80945362       0.00954740       0.00001165      -0.00952551
Cu       5.42835000       3.61889638       1.80945362       0.00003340       0.00958297      -0.00952109
Cu       7.23780362       3.61889638       0.00000000      -0.00954033       0.00957095       0.00000042
Cu       9.04724638       5.42835000       0.00000000       0.00181445      -0.00000524       0.00001225
Cu       7.23780362       5.42835000       1.80945362      -0.00954388      -0.00001134      -0.00953506
Cu       9.04724638       3.61889638       1.80945362      -0.00532476      -0.00528976       0.00530643
Cu       0.00000000       7.23780362       0.00000000      -0.00000874      -0.00183371       0.00000506
Cu       1.80945362       9.04724638       0.00000000      -0.00951191       0.00953420       0.00001099
Cu       0.00000000       9.04724638       1.80945362       0.00001058       0.00953669      -0.00951422
Cu       1.80945362       7.23780362       1.80945362       0.00532731       0.00530739       0.00532517
Cu       3.61889638       7.23780362       0.00000000       0.00955054      -0.00954528       0.00001795
Cu       5.42835000       9.04724638       0.00000000      -0.00002444       0.00180982       0.00001831
Cu       3.61889638       9.04724638       1.80945362      -0.00533197      -0.00532423       0.00531946
Cu       5.42835000       7.23780362       1.80945362      -0.00000515      -0.00954981      -0.00954802
Cu       7.23780362       7.23780362       0.00000000      -0.00954001      -0.00956706       0.00000850
Cu       9.04724638       9.04724638       0.00000000       0.00953598       0.00952733      -0.00000246
Cu       7.23780362       9.04724638       1.80945362       0.00532335      -0.00532925       0.00532887
Cu       9.04724638       7.23780362       1.80945362      -0.00532218       0.00529604       0.00533920
Cu       0.00000000       0.00000000       3.61889638       0.00001853       0.00001012       0.00182653
Cu       1.80945362       1.80945362       3.61889638       0.00529987       0.00530603      -0.00529759
Cu       0.00000000       1.80945362       5.42835000       0.00000782      -0.00180816       0.00000234
Cu       1.80945362       0.00000000       5.42835000      -0.00180925       0.00001792      -0.00000475
Cu       3.61889638       0.00000000       3.61889638       0.00952982      -0.00002133       0.00955350
Cu       5.42835000       1.80945362       3.61889638       0.00002644      -0.00953539       0.00956774
Cu       3.61889638       1.80945362       5.42835000       0.00952410      -0.00955445      -0.00000289
Cu       5.42835000       0.00000000       5.42835000      -0.00000596       0.00000580       0.00001375
Cu       7.23780362       0.00000000       3.61889638      -0.00954291      -0.00001127       0.00955556
Cu       9.04724638       1.80945362       3.61889638      -0.00532581       0.00534275      -0.00529601
Cu       7.23780362       1.80945362       5.42835000      -0.00953251      -0.00951775       0.00001618
Cu       9.04724638       0.00000000       5.42835000       0.00181201      -0.00000096      -0.00000380
Cu       0.00000000       3.61889638       3.61889638      -0.00000064       0.00955288       0.00952705
Cu       1.80945362       5.42835000       3.61889638      -0.00954181       0.00001768       0.00951569
Cu       0.00000000       5.42835000       5.42835000      -0.00001515       0.00000331       0.00000863
Cu       1.80945362       3.61889638       5.42835000      -0.00953231       0.00952951       0.00000386
Cu       3.61889638       3.61889638       3.61889638      -0.00533541      -0.00529613      -0.00531479
Cu       5.42835000       5.42835000       3.61889638       0.00001462       0.00000740       0.00180768
Cu       3.61889638       5.42835000       5.42835000       0.00181017       0.00000401      -0.00000800
Cu       5.42835000       3.61889638       5.42835000       0.00001648       0.00181536       0.00000504
Cu       7.23780362       3.61889638       3.61889638       0.00533933      -0.00529950      -0.00531752
Cu       9.04724638       5.42835000       3.61889638       0.00952834      -0.00000606       0.00952718
Cu       7.23780362       5.42835000       5.42835000      -0.00179611       0.00000206       0.00001087
Cu       9.04724638       3.61889638       5.42835000       0.00952058       0.00954651       0.00002528
Cu       0.00000000       7.23780362       3.61889638       0.00000196      -0.00956205       0.00953462
Cu       1.80945362       9.04724638       3.61889638       0.00532954      -0.00532375      -0.00532953
Cu       0.00000000       9.04724638       5.42835000      -0.00000265       0.00180595      -0.00002019
Cu       1.80945362       7.23780362       5.42835000      -0.00954079      -0.00954822      -0.00000970
Cu       3.61889638       7.23780362       3.61889638      -0.00532202       0.00531851      -0.00532691
Cu       5.42835000       9.04724638       3.61889638      -0.00000565       0.00952599       0.00953100
Cu       3.61889638       9.04724638       5.42835000       0.00953856       0.00954482       0.00000473
Cu       5.42835000       7.23780362       5.42835000       0.00001811      -0.00182126       0.00000175
Cu       7.23780362       7.23780362       3.61889638       0.00531929       0.00531236      -0.00532194
Cu       9.04724638       9.04724638       3.61889638      -0.00532256      -0.00532992      -0.00531514
Cu       7.23780362       9.04724638       5.42835000      -0.00953610       0.00951325       0.00001166
Cu       9.04724638       7.23780362       5.42835000       0.00952390      -0.00954754      -0.00000904
Cu       0.00000000       0.00000000       7.23780362      -0.00000288      -0.00000009      -0.00181290
Cu       1.80945362       1.80945362       7.23780362       0.00532378       0.00530918       0.00531748
Cu       0.00000000       1.80945362       9.04724638      -0.00000631      -0.00952615       0.00953551
Cu       1.80945362       0.00000000       9.04724638      -0.00952079      -0.00000512       0.00952740
Cu       3.61889638       0.00000000       7.23780362       0.00953860      -0.00000668      -0.00954479
Cu       5.42835000       1.80945362       7.23780362       0.00000638      -0.00953149      -0.00954149
Cu       3.61889638       1.80945362       9.04724638      -0.00531868       0.00530621      -0.00533833
Cu       5.42835000       0.00000000       9.04724638      -0.00002069      -0.00001365       0.00180059
Cu       7.23780362       0.00000000       7.23780362      -0.00953813      -0.00000097      -0.00955458
Cu       9.04724638       1.80945362       7.23780362      -0.00533011       0.00534627       0.00529796
Cu       7.23780362       1.80945362       9.04724638       0.00532338       0.00533899      -0.00532213
Cu       9.04724638       0.00000000       9.04724638       0.00954126       0.00000646       0.00953792
Cu       0.00000000       3.61889638       7.23780362      -0.00001011       0.00954749      -0.00954807
Cu       1.80945362       5.42835000       7.23780362      -0.00954095      -0.00000883      -0.00953234
Cu       0.00000000       5.42835000       9.04724638      -0.00001698      -0.00001196       0.00179342
Cu       1.80945362       3.61889638       9.04724638       0.00529993      -0.00531035      -0.00534929
Cu       3.61889638       3.61889638       7.23780362      -0.00531653      -0.00531160       0.00533629
Cu       5.42835000       5.42835000       7.23780362       0.00003313      -0.00001275      -0.00180703
Cu       3.61889638       5.42835000       9.04724638       0.00955166      -0.00000050       0.00953200
Cu       5.42835000       3.61889638       9.04724638       0.00003000       0.00956523       0.00951678
Cu       7.23780362       3.61889638       7.23780362       0.00532790      -0.00530313       0.00532114
Cu       9.04724638       5.42835000       7.23780362       0.00950966      -0.00002108      -0.00954096
Cu       7.23780362       5.42835000       9.04724638      -0.00953468      -0.00001210       0.00952369
Cu       9.04724638       3.61889638       9.04724638      -0.00532424      -0.00530384      -0.00533103
Cu       0.00000000       7.23780362       7.23780362      -0.00000958      -0.00954499      -0.00953876
Cu       1.80945362       9.04724638       7.23780362       0.00533356      -0.00530014       0.00532076
Cu       0.00000000       9.04724638       9.04724638      -0.00001118       0.00953863       0.00953344
Cu       1.80945362       7.23780362       9.04724638       0.00533278       0.00531478      -0.00531354
Cu       3.61889638       7.23780362       7.23780362      -0.00531338       0.00532019       0.00531089
Cu       5.42835000       9.04724638       7.23780362      -0.00000601       0.00954607      -0.00954571
Cu       3.61889638       9.04724638       9.04724638      -0.00531005      -0.00530548      -0.00532749
Cu       5.42835000       7.23780362       9.04724638      -0.00000371      -0.00955138       0.00954323
Cu       7.23780362       7.23780362       7.23780362       0.00532624       0.00530566       0.00531199
Cu       9.04724638       9.04724638       7.23780362      -0.00532417      -0.00532313       0.00532123
Cu       7.23780362       9.04724638       9.04724638       0.00531942      -0.00532713      -0.00534270
Cu       9.04724638       7.23780362       9.04724638      -0.00532887       0.00529404      -0.00532998
108
Lattice="10.8567 0.0 0.0 0.0 10.8567 0.0 0.0 0.0 10.8567" Properties=species:S:1:pos:R:3:forces:R:3 energy=-405.23783741 stress="-0.0005464350675413376 9.107160727831787e-06 1.7289854089974248e-06 9.107160727831787e-06 -0.0005410792972170176 3.1463509918668767e-06 1.7289854089974248e-06 3.1463509918668767e-06 -0.0005460469330548354" free_energy=-405.25117559 pbc="T T T"
Cu      10.85579922      10.85347437      10.85548676      -0.01658390       0.04365599      -0.00268251
Cu       1.80842430       1.80898678      10.85586664      -0.00323991      -0.01981973       0.01174948
Cu      10.85336732       1.80947175       1.80808600       0.02546314      -0.04237361      -0.00590668
Cu       1.80297195      10.85391059       1.80955459       0.04237299       0.03280653      -0.00806297
Cu       3.62590058       0.00078114      10.85626389      -0.06406143      -0.01129447       0.01371420
Cu       5.41880522       1.81292646       0.00021095       0.04702623      -0.00884074       0.00990782
Cu       3.62078751       1.80491280       1.81583595      -0.05044078       0.02444302      -0.03061458
Cu       5.42302251      10.85460998       1.80863644       0.05918731       0.01986497       0.00561466
Cu       7.23981070       0.00183739       0.00516844      -0.04278334      -0.00678627      -0.04499051
Cu       9.04371144       1.80833451      10.85593460       0.02387874      -0.01593960      -0.00389286
Cu       7.23666616       1.81672739       1.80849638       0.00842959      -0.02779078       0.02025774
Cu       9.04042620       0.00187050       1.80904519       0.05714416      -0.00432784      -0.00149194
Cu      10.85573603       3.61727309       0.00189591      -0.00411090       0.02625045      -0.01066490
Cu       1.81386893       5.42936944       0.00466447      -0.05962051      -0.00444681      -0.04210640
Cu       0.00130042       5.42429600       1.81292375      -0.01760385       0.07286207      -0.01946998
Cu       1.80817318       3.61949274       1.80675888       0.01496853      -0.04041889       0.03875577
Cu       3.61657880       3.62437304       0.00051330       0.01909952      -0.03980608      -0.00141699
Cu       5.42586555       5.42369182       0.00261277       0.03946037       0.01057449       0.01824896
Cu       3.61151187       5.43283154       1.80314598       0.06681047      -0.03810286       0.05065750
Cu       5.42915937       3.61484846       1.81505144      -0.02621145       0.04436480      -0.03761123
Cu       7.23770417       3.61337966      10.85245959      -0.02100265       0.03448752       0.04984656
Cu       9.03521824       5.43090882      10.85486022       0.10023180      -0.00259859       0.02663921
Cu       7.24125562       5.42528830       1.81574149      -0.03200585       0.01227088      -0.06788290
Cu       9.05611088       3.61935844       1.80844612      -0.06371336      -0.01486284       0.00752359
Cu       0.00849580       7.24622864      10.85326309      -0.06787493      -0.08110632       0.05490338
Cu       1.80802162       9.04919364       0.00107199       0.05460024       0.01902861       0.00132400
Cu       0.00297560       9.05334774       1.80053940      -0.02960988      -0.03550308       0.05156154
Cu       1.81247602       7.23843168       1.80659114      -0.03531190       0.01450256       0.03280295
Cu       3.61830567       7.23702053      10.85628441       0.02553337       0.02759479      -0.00556466
Cu       5.42795938       9.04763158       0.00015275       0.01843854       0.00290652      -0.00851734
Cu       3.62679778       9.04730598       1.81232771      -0.06025058       0.00502422      -0.03324948
Cu       5.43072382       7.24180800       1.80774391       0.00429076      -0.03713790      -0.02698831
Cu       7.24131609       7.24335259      10.85290504      -0.05823939      -0.06212098       0.03103951
Cu       9.04057646       9.04602359      10.85262787       0.05367235       0.03915566       0.02586621
Cu       7.24696135       9.04726603       1.81026559      -0.06837457       0.02012521      -0.00382168
Cu       9.04237531       7.24316661       1.80948695       0.08436211      -0.05059314      -0.00927869
Cu      10.85631535      10.85327135       3.62262414       0.01815642      -0.00088885      -0.04549930
Cu       1.80853471       1.80885085       3.62921730      -0.01023582       0.00354855      -0.07358463
Cu      10.85504718       1.80678591       5.42402046       0.03206468       0.02434841       0.05865870
Cu       1.80415164      10.85297431       5.42562909       0.03446651       0.02164622       0.04723460
Cu       3.61344979       0.00152558       3.62121961       0.02827210      -0.00440006       0.01310537
Cu       5.42790477       1.80821346       3.61779432       0.01699040      -0.01526858       0.01906298
Cu       3.61813174       1.81453206       5.42572572       0.01835008      -0.03571141       0.05409604
Cu       5.43508257      10.85400146       5.42460759      -0.04399402       0.00746802      -0.01409134
Cu       7.23686343       0.00037716       3.61512693       0.00911223      -0.01390511       0.02003034
Cu       9.05431160       1.80309518       3.62572090      -0.07712658       0.04063055      -0.04943632
Cu       7.23371151       1.80578688       5.43030703       0.03786292       0.02102543      -0.05426708
Cu       9.05458757       0.00264024       5.42590855      -0.06336112      -0.05648214       0.01697286
Cu      10.85226992       3.60943053       3.61681124       0.04290154       0.06692004       0.02978881
Cu       1.81658213       5.42799944       3.62070988      -0.05405961       0.00463126      -0.00982413
Cu       0.00417983       5.42299461       5.43001010      -0.03537578       0.01860296      -0.00831313
Cu       1.80763165       3.62672526       5.42582071      -0.00560005      -0.04636130       0.04061718
Cu       3.61360407       3.61152284       3.62121548       0.02714184       0.05035714      -0.04046329
Cu       5.42536039       5.42965378       3.61078545       0.00088655       0.01214319       0.03842467
Cu       3.62466531       5.42460248       5.42590181      -0.01315627       0.03143908       0.02074727
Cu       5.43093639       3.62210638       5.41775419      -0.01581896      -0.01689639       0.07418634
Cu       7.24024442       3.62439063       3.61941739       0.02002277      -0.05713251       0.00034344
Cu       9.04810308       5.42592342       3.62099748       0.03543607       0.03273592       0.00648685
Cu       7.23255017       5.43298245       5.42549306       0.01980181      -0.01811157       0.00976397
Cu       9.04794414       3.62180381       5.42891943      -0.01188518      -0.00106531       0.00197845
Cu       0.00471691       7.24256841       3.62639304      -0.00373281      -0.05884603      -0.07486570
Cu       1.81805082       9.04526590       3.61646730      -0.04497027      -0.00118880       0.00633897
Cu       0.00190850       9.04013405       5.42504348      -0.00955385       0.05968771       0.04301260
Cu       1.80745316       7.23490032       5.43334061       0.05065255      -0.00934256      -0.02591656
Cu       3.61980302       7.23863057       3.61536524       0.00611501      -0.01242768       0.04232962
Cu       5.42400157       9.04795587       3.61418740       0.03892786       0.00247400       0.04353005
Cu       3.61905836       9.04911797       5.42987168       0.00465118      -0.00947747      -0.00909479
Cu       5.42886081       7.24119134       5.43707596      -0.02028635      -0.02640078      -0.09120819
Cu       7.23929001       7.24070659       3.61199727      -0.02473215      -0.00981108       0.05109937
Cu       9.05612423       9.04299425       3.61685956      -0.04432604       0.03658899       0.00516064
Cu       7.23615611       9.04370037       5.42991217       0.02296561       0.04365039      -0.03566875
Cu       9.04773515       7.24042421       5.42450727      -0.00113301      -0.03195123       0.03442638
Cu      10.85325734      10.85447221       7.23568265       0.04100293       0.00680143       0.00903723
Cu       1.80523633       1.81080886       7.24221795       0.02242937      -0.01465217      -0.03619960
Cu      10.85012486       1.81577330       9.04437620       0.03654654      -0.07334834       0.04437410
Cu       1.81043387      10.85201924       9.05076960      -0.01554126       0.03979605      -0.02369200
Cu       3.62553406       0.00308015       7.23447452      -0.04578724       0.01430198      -0.00994735
Cu       5.43864020       1.80139512       7.23464204      -0.10013889       0.06029873      -0.01045099
Cu       3.61339801       1.80758084       9.04746612       0.02554389       0.02459967      -0.01344309
Cu       5.42606955       0.00259160       9.04996403       0.03416976      -0.02670646      -0.01015150
Cu       7.23782718       0.00938898       7.23505839       0.01054013      -0.07572726       0.01313974
Cu       9.05026910       1.81152703       7.23592606      -0.03224409      -0.01568187       0.01519587
Cu       7.23215097       1.80816623       9.04744452       0.05099139      -0.01371938       0.00673522
Cu       9.04993678      10.85166564       9.04765676      -0.03176507       0.04674550       0.01077436
Cu      10.85266315       3.61349311       7.23973068       0.01412446       0.05824489      -0.02807921
Cu       1.80894314       5.42657070       7.23895106      -0.00316628       0.00661439       0.01157482
Cu      10.85585828       5.42581268       9.05165605      -0.01489848       0.03599088      -0.01911922
Cu       1.80375852       3.62161186       9.05091703       0.03414411      -0.01253662      -0.01666133
Cu       3.61914446       3.61927571       7.24349047       0.01712308      -0.01766924      -0.03017405
Cu       5.42988318       5.43021572       7.24185794      -0.00384161      -0.04329586      -0.02935088
Cu       3.62032675       5.43155772       9.04975906      -0.00057721      -0.02738208       0.00321642
Cu       5.43350802       3.61582643       9.04483815      -0.05744231       0.00851609       0.01327358
Cu       7.23623819       3.61047071       7.23515448       0.00590052       0.04900470      -0.00962579
Cu       9.03988771       5.42993052       7.23824831       0.04405152       0.01076646      -0.00236389
Cu       7.23389738       5.42156673       9.04696650       0.02047264       0.05012083       0.00385308
Cu       9.04618242       3.61738936       9.05050035      -0.01621109       0.01071411      -0.02975356
Cu       0.00465199       7.24087726       7.23098952      -0.05539339      -0.03101727       0.06133323
Cu       1.81309116       9.04595150       7.23719054      -0.00633342       0.01412240       0.00979935
Cu       0.00251702       9.05437804       9.04882180      -0.00293577      -0.03326565      -0.02756064
Cu       1.80719933       7.23994717       9.05386028       0.01966104      -0.00393672      -0.05706817
Cu       3.62329139       7.23232717       7.24116681      -0.03780673       0.02307522       0.00090263
Cu       5.42508289       9.04908865       7.23202981       0.02133700       0.01410494       0.04527788
Cu       3.62139907       9.05005436       9.04255672      -0.00393425      -0.02885979       0.02221621
Cu       5.43079015       7.23296946       9.05337412      -0.00605677       0.02899363      -0.01649192
Cu       7.23287815       7.23997333       7.23420169       0.05330708      -0.00990250       0.05055158
Cu       9.04116077       9.05312876       7.24289769       0.03261425      -0.04284894      -0.04336608
Cu       7.23555856       9.04239680       9.04315753      -0.02449631       0.05715779       0.00529335
Cu       9.05322669       7.24500595       9.05682568      -0.01891705      -0.04659843      -0.09172905
108
Lattice="10.8567 0.0 0.0 0.0 10.8567 0.0 0.0 0.0 10.8567" Properties=species:S:1:pos:R:3:forces:R:3 energy=-405.17508556 stress="-0.0008127085697641957 -1.70241530464854e-06 9.721337708836951e-06 -1.70241530464854e-06 -0.0008140346158270444 3.157399711321515e-05 9.721337708836951e-06 3.157399711321515e-05 -0.0008075587193089568" free_energy=-405.18837184 pbc="T T T"
Cu      10.85489583      10.85025535      10.85427298      -0.03211609       0.09078522      -0.00349314
Cu       1.80739443       1.80851690      10.85503491      -0.00066785      -0.03254129       0.02295999
Cu      10.85003855       1.80948347       1.80671740       0.05737267      -0.07729639       0.00362763
Cu       1.79649669      10.85112628       1.80965436       0.09517136       0.07088003      -0.00789412
Cu       3.63289501       0.00156043      10.85582984      -0.13328350      -0.03080439       0.03072984
Cu       5.40926761       1.81639789       0.00042330       0.09287451      -0.02569633       0.01862996
Cu       3.62267104       1.80037568       1.82221350      -0.09733401       0.04520312      -0.06429745
Cu       5.41770392      10.85252299       1.80782012       0.11371080       0.04137689       0.01407657
Cu       7.24181126       0.00367369       0.01033004      -0.08641445      -0.01129186      -0.07926435
Cu       9.04018019       1.80721301      10.85516845       0.04480218      -0.02358805      -0.00286713
Cu       7.23553001       1.82399693       1.80754219       0.01222936      -0.06009467       0.03746703
Cu       9.03361482       0.00374046       1.80863654       0.11235896       0.00083913       0.00358511
Cu      10.85477152       3.61565392       0.00379018      -0.01013820       0.04580570      -0.02206388
Cu       1.81827523       5.43038813       0.00932254      -0.12729058      -0.00522821      -0.07597031
Cu       0.00259812       5.42025296       1.81639072      -0.02967395       0.13423968      -0.04242872
Cu       1.80689502       3.62008291       1.80406989       0.02081946      -0.07432256       0.06705511
Cu       3.61426415       3.62984363       0.00102639       0.03087889      -0.09866490      -0.00760852
Cu       5.42338708       5.41903528       0.00522837       0.08240443       0.02681511       0.02810728
Cu       3.60413746       5.43730721       1.79684595       0.12997175      -0.07193946       0.10177152
Cu       5.42996483       3.61080727       1.82064340      -0.05399885       0.07477218      -0.06708997
Cu       7.23760136       3.60786825      10.84822667      -0.03441621       0.06184100       0.09695767
Cu       9.02320541       5.43346720      10.85302436       0.17849111      -0.00736699       0.05096030
Cu       7.24470273       5.42222856       1.82201884      -0.04931005       0.02150268      -0.12070024
Cu       9.06496571       3.61981822       1.80743959      -0.13530004      -0.02805685       0.01346095
Cu       0.01698129       7.25464127      10.84983444      -0.13307794      -0.15033680       0.10102347
Cu       1.80659798       9.05114372       0.00214409       0.11973716       0.02741819       0.00028044
Cu       0.00594665       9.05944367       1.79163300      -0.06720959      -0.07784010       0.11242946
Cu       1.81549298       7.23906202       1.80373355      -0.06643997       0.02904054       0.05522002
Cu       3.61771886       7.23624156      10.85586783       0.04020598       0.06311346      -0.01129819
Cu       5.42757168       9.04801732       0.00030410       0.03665782       0.00385329      -0.01756150
Cu       3.63468995       9.04736635       1.81519660      -0.12469600       0.01278885      -0.07361921
Cu       5.43309839       7.24580664       1.80602996       0.01060724      -0.06866203      -0.04407321
Cu       7.24481976       7.24889211      10.84911464      -0.10416600      -0.10725055       0.06080375
Cu       9.03391468       9.04480666      10.84855965       0.09235463       0.07171511       0.05118460
Cu       7.25610867       9.04728883       1.81107702      -0.13884232       0.04014576      -0.00728087
Cu       9.03751715       7.24852190       1.80951876       0.16719495      -0.10300867      -0.02201968
Cu      10.85593352      10.84984247       3.62634484       0.03288407      -0.00925541      -0.09778284
Cu       1.80761417       1.80824863       3.63952704      -0.02544571       0.00197054      -0.15207295
Cu      10.85339913       1.80412189       5.41969982       0.06395759       0.05725966       0.11322554
Cu       1.79885498      10.84925187       5.42291535       0.06799541       0.03524160       0.09695281
Cu       3.60800744       0.00305052       3.62354468       0.06027392      -0.01243546       0.01465782
Cu       5.42746214       1.80697102       3.61669508       0.03395580      -0.02370899       0.02738390
Cu       3.61736993       1.81960496       5.42310969       0.03145385      -0.06633160       0.10905748
Cu       5.44180851      10.85130411       5.42086300      -0.09583154       0.01416947      -0.02341226
Cu       7.23592465       0.00075226       3.61136053       0.02519854      -0.02733666       0.03789123
Cu       9.06136498       1.79674281       3.63253782      -0.16181137       0.08784599      -0.10737817
Cu       7.22962505       1.80212318       5.43225581       0.08924581       0.05168662      -0.11306115
Cu       9.06191921       0.00527190       5.42346959      -0.12221381      -0.11023338       0.03490527
Cu      10.84784625       3.59997489       3.61473056       0.08047202       0.12723228       0.04263828
Cu       1.82370239       5.42764953       3.62252187      -0.10245653       0.01068150      -0.02736657
Cu       0.00835434       5.41764204       5.43166900      -0.08387927       0.04805768      -0.02051476
Cu       1.80580892       3.63454697       5.42329751      -0.00498750      -0.09713688       0.08246089
Cu       3.60831588       3.60415700       3.62352839       0.05488999       0.10758853      -0.07835663
Cu       5.42237089       5.43095941       3.60268038      -0.00701274       0.03161972       0.06377457
Cu       3.63043217       5.42085975       5.42345667      -0.02466027       0.05696535       0.04711963
Cu       5.43352039       3.62531389       5.40716956      -0.02454814      -0.03335527       0.13054592
Cu       7.24268827       3.62987620       3.61993852       0.03848441      -0.10371331       0.00586578
Cu       9.04896521       5.42350172       3.62309955       0.06112803       0.06671896      -0.00001461