108
Lattice="10.857 0.0 0.0 -0.10829197 10.85645991 0.0 -0.10829197 -0.10937755 10.85590892" Properties=species:S:1:pos:R:3:forces:R:3 energy=-405.16632682 stress="-0.0004905328350176361 -0.0051740107566048445 -0.0052264137619352285 -0.0051740107566048445 -0.0005938965702326145 -0.005278770180641499 -0.0052264137619352285 -0.005278770180641499 -0.0007002406447797295" free_energy=-405.17065304 pbc="T T T"
Cu       0.00000000       0.00000000       0.00000000      -0.00001653       0.00000109       0.00002658
Cu       1.79145492       1.80941360       0.00000000      -0.00690200      -0.00697048       0.00263678
Cu      -0.03609740       1.79118398       1.80932177       0.00273234      -0.00685454      -0.00692140
Cu       1.79145492      -0.01822963       1.80932177      -0.00691852       0.00269908      -0.00689885
Cu       3.61899638       0.00000000       0.00000000       0.00269798      -0.00430468      -0.00437012
Cu       5.41045130       1.80941360       0.00000000       0.00431099      -0.00263549       0.00432070
Cu       3.58289899       1.79118398       1.80932177      -0.00592264       0.00108711       0.00111565
Cu       5.41045130      -0.01822963       1.80932177       0.00434213       0.00431930      -0.00259430
Cu       7.23800362       0.00000000       0.00000000      -0.00268812       0.00425515       0.00432805
Cu       9.02944768       1.80941360       0.00000000       0.01086594      -0.01073840       0.00004427
Cu       7.20190622       1.79118398       1.80932177       0.00551010       0.00555802       0.00559630
Cu       9.02944768      -0.01822963       1.80932177       0.01085351       0.00012253      -0.01075136
Cu      -0.03609729       3.61881635       0.00000000      -0.00436105       0.00264303      -0.00427163
Cu       1.75535763       5.42822995       0.00000000      -0.00269491       0.00428823       0.00431231
Cu      -0.07219468       5.41000033       1.80932177       0.00424080       0.00434336      -0.00261085
Cu       1.75535763       3.60058672       1.80932177       0.00110457      -0.00593495       0.00111307
Cu       3.58289909       3.61881635       0.00000000       0.00691373       0.00695688      -0.00263754
Cu       5.37435401       5.42822995       0.00000000       0.00001858       0.00001776      -0.00001237
Cu       3.54680170       5.41000033       1.80932177       0.01088678       0.00008925      -0.01072439
Cu       5.37435401       3.60058672       1.80932177       0.00002029       0.01087549      -0.01072520
Cu       7.20190633       3.61881635       0.00000000      -0.01082589       0.01076214       0.00003445
Cu       8.99335040       5.42822995       0.00000000       0.00267695      -0.00425413      -0.00429843
Cu       7.16580894       5.41000033       1.80932177      -0.00686066       0.00269581      -0.00692320
Cu       8.99335040       3.60058672       1.80932177      -0.00112396      -0.00114520       0.00590343
Cu      -0.07219468       7.23764356       0.00000000       0.00424949      -0.00264817       0.00432902
Cu       1.71926035       9.04704631       0.00000000      -0.01085974       0.01074866      -0.00002703
Cu      -0.10829197       9.02881668       1.80932177      -0.00000892       0.01084634      -0.01075994
Cu       1.71926024       7.21941393       1.80932177       0.00545963       0.00555212       0.00559072
Cu       3.54680170       7.23764356       0.00000000       0.01088650      -0.01071736      -0.00004817
Cu       5.33825673       9.04704631       0.00000000      -0.00428617       0.00261808      -0.00435423
Cu       3.51070441       9.02881668       1.80932177      -0.00112665      -0.00114009       0.00591106
Cu       5.33825662       7.21941393       1.80932177       0.00280966      -0.00685063      -0.00693243
Cu       7.16580894       7.23764356       0.00000000      -0.00687301      -0.00694839       0.00263128
Cu       8.95725311       9.04704631       0.00000000       0.00687480       0.00692655      -0.00260964
Cu       7.12971165       9.02881668       1.80932177       0.00113710      -0.00593569       0.00107281
Cu       8.95725300       7.21941393       1.80932177      -0.00594889       0.00106034       0.00106212
Cu      -0.03609729      -0.03645915       3.61863269      -0.00427735      -0.00432469       0.00258447
Cu       1.75535763       1.77295446       3.61863269       0.00114019       0.00114976      -0.00588195
Cu      -0.07219468       1.75472483       5.42795446       0.00435358      -0.00264535       0.00433644
Cu       1.75535763      -0.05468878       5.42795446      -0.00265697       0.00429134       0.00434501
Cu       3.58289909      -0.03645915       3.61863269       0.00686293      -0.00270143       0.00698284
Cu       5.37435401       1.77295446       3.61863269      -0.00000181      -0.01085593       0.01077147
Cu       3.54680170       1.75472483       5.42795446       0.01080932      -0.01075615       0.00001987
Cu       5.37435401      -0.05468878       5.42795446      -0.00003043       0.00000700       0.00000142
Cu       7.20190633      -0.03645915       3.61863269      -0.01085537      -0.00010440       0.01073804
Cu       8.99335040       1.77295446       3.61863269      -0.00113681       0.00592789      -0.00110922
Cu       7.16580894       1.75472483       5.42795446      -0.00689590      -0.00695749       0.00261813
Cu       8.99335040      -0.05468878       5.42795446       0.00268725      -0.00425444      -0.00433505
Cu      -0.07219457       3.58235720       3.61863269      -0.00277712       0.00685163       0.00691585
Cu       1.71926035       5.39177081       3.61863269      -0.01086559      -0.00013325       0.01078036
Cu      -0.10829197       5.37354118       5.42795446       0.00002194      -0.00002218      -0.00001616
Cu       1.71926035       3.56412758       5.42795446      -0.01083628       0.01071986       0.00001218
Cu       3.54680181       3.58235720       3.61863269      -0.00548457      -0.00554213      -0.00556287
Cu       5.33825673       5.39177081       3.61863269      -0.00429213      -0.00435641       0.00259612
Cu       3.51070441       5.37354118       5.42795446       0.00268753      -0.00428384      -0.00431625
Cu       5.33825673       3.56412758       5.42795446      -0.00431461       0.00263925      -0.00431497
Cu       7.16580904       3.58235720       3.61863269       0.00594125      -0.00106160      -0.00111538
Cu       8.95725311       5.39177081       3.61863269       0.00688663      -0.00269935       0.00689828
Cu       7.12971165       5.37354118       5.42795446      -0.00270964       0.00428407       0.00430078
Cu       8.95725311       3.56412758       5.42795446       0.00687932       0.00695326      -0.00264810
Cu      -0.10829197       7.20118441       3.61863269      -0.00001098      -0.01086881       0.01074173
Cu       1.68316306       9.01058716       3.61863269       0.00593697      -0.00105017      -0.00105415
Cu      -0.14438926       8.99235753       5.42795446      -0.00426109       0.00266759      -0.00431183
Cu       1.68316295       7.18295478       5.42795446      -0.00686236      -0.00694342       0.00263997
Cu       3.51070441       7.20118441       3.61863269      -0.00111901       0.00592738      -0.00104007
Cu       5.30215944       9.01058716       3.61863269      -0.00275037       0.00687456       0.00694523
Cu       3.47460712       8.99235753       5.42795446       0.00687750       0.00696976      -0.00261262
Cu       5.30215933       7.18295478       5.42795446       0.00428658      -0.00264994       0.00432278
Cu       7.12971165       7.20118441       3.61863269       0.00113209       0.00112583      -0.00593760
Cu       8.92115582       9.01058716       3.61863269      -0.00551195      -0.00554806      -0.00563711
Cu       7.09361436       8.99235753       5.42795446      -0.01088397       0.01073793      -0.00001180
Cu       8.92115571       7.18295478       5.42795446       0.01084497      -0.01076464      -0.00002312
Cu      -0.07219468      -0.07291840       7.23727623       0.00436249       0.00434997      -0.00260596
Cu       1.71926024       1.73649520       7.23727623       0.00551047       0.00551734       0.00555784
Cu      -0.10829197       1.71826568       9.04658715       0.00000944      -0.01087805       0.01072238
Cu       1.71926035      -0.09114792       9.04658715      -0.01083575      -0.00012688       0.01068985
Cu       3.54680170      -0.07291840       7.23727623       0.01083650       0.00010621      -0.01075399
Cu       5.33825662       1.73649520       7.23727623       0.00274475      -0.00686908      -0.00695549
Cu       3.51070441       1.71826568       9.04658715      -0.00114061       0.00589799      -0.00113315
Cu       5.33825673      -0.09114792       9.04658715      -0.00433019      -0.00437670       0.00259288
Cu       7.16580894      -0.07291840       7.23727623      -0.00692212       0.00269639      -0.00692955
Cu       8.95725300       1.73649520       7.23727623      -0.00593348       0.00108138       0.00107006
Cu       7.12971165       1.71826568       9.04658715       0.00112737       0.00114974      -0.00589549
Cu       8.95725311      -0.09114792       9.04658715       0.00689017      -0.00270478       0.00694904
Cu      -0.10829197       3.54589795       7.23727623       0.00004517       0.01085620      -0.01077821
Cu       1.68316295       5.35531155       7.23727623      -0.00686831       0.00268641      -0.00695722
Cu      -0.14438926       5.33708203       9.04658715      -0.00432532      -0.00433824       0.00262390
Cu       1.68316306       3.52766843       9.04658715       0.00595011      -0.00107642      -0.00112889
Cu       3.51070441       3.54589795       7.23727623      -0.00115805      -0.00116578       0.00588472
Cu       5.30215933       5.35531155       7.23727623       0.00429859       0.00436411      -0.00258242
Cu       3.47460712       5.33708203       9.04658715       0.00691087      -0.00267442       0.00690015
Cu       5.30215944       3.52766843       9.04658715      -0.00277078       0.00687103       0.00690382
Cu       7.12971165       3.54589795       7.23727623       0.00111240      -0.00592171       0.00108165
Cu       8.92115571       5.35531155       7.23727623       0.01083924       0.00010263      -0.01073747
Cu       7.09361436       5.33708203       9.04658715      -0.01085320      -0.00008376       0.01075903
Cu       8.92115582       3.52766843       9.04658715      -0.00549990      -0.00552258      -0.00557227
Cu      -0.14438937       7.16472516       7.23727623       0.00278699      -0.00686154      -0.00693814
Cu       1.64706566       8.97412790       7.23727623       0.00117935      -0.00588388       0.00108506
Cu      -0.18048654       8.95589838       9.04658715      -0.00275824       0.00687639       0.00693529
Cu       1.64706566       7.14649564       9.04658715       0.00117200       0.00116360      -0.00591416
Cu       3.47460702       7.16472516       7.23727623      -0.00592076       0.00109534       0.00109399
Cu       5.26606204       8.97412790       7.23727623      -0.00004249       0.01084670      -0.01073059
Cu       3.43850984       8.95589838       9.04658715      -0.00546762      -0.00554198      -0.00561663
Cu       5.26606204       7.14649564       9.04658715      -0.00001181      -0.01083704       0.01074986
Cu       7.09361425       7.16472516       7.23727623       0.00545877       0.00554307       0.00562287
Cu       8.88505843       8.97412790       7.23727623      -0.00113847      -0.00114650       0.00592606
Cu       7.05751707       8.95589838       9.04658715       0.00590723      -0.00110400      -0.00106880
Cu       8.88505843       7.14649564       9.04658715      -0.00115448       0.00591130      -0.00103953
108
Lattice="10.857 0.0 0.0 -0.10829197 10.85645991 0.0 -0.10829197 -0.10937755 10.85590892" Properties=species:S:1:pos:R:3:forces:R:3 energy=-405.14792442 stress="-0.000686463643097494 -0.005128539552585138 -0.005156235743769006 -0.005128539552585138 -0.0008017646764553263 -0.005227748745839146 -0.005156235743769006 -0.005227748745839146 -0.0009113809557843226" free_energy=-405.15225303 pbc="T T T"
Cu      -0.10500702      -0.10793767      10.85416503      -0.02846190      -0.03107369       0.02667397
Cu       1.68181050       1.69683754      10.85391339       0.01278069       0.01979971       0.03614593
Cu      10.81963666       1.79051953       1.80376452       0.01058198      -0.01087358       0.03646497
Cu       1.67946019      10.83570827       1.81636378       0.02542317       0.02603155      -0.04752897
Cu       3.62121091       0.00173010       0.00136676      -0.01355504      -0.01834818       0.00119506
Cu       5.30261689       1.69305130      10.84910248      -0.00928619       0.03605060       0.04589803
Cu       3.58377877       1.79268217       1.81339437      -0.01071543      -0.04455363      -0.04107709
Cu       5.31285040      10.83679833       1.81069993      -0.07224420      -0.00051903      -0.03038345
Cu       7.12949940      -0.10484701      10.85243579      -0.00727600      -0.03191358       0.00661804
Cu       8.92359824       1.69838858      10.85284983      -0.00164986       0.03121295       0.04671538
Cu       7.19510824       1.79547876       1.80760068       0.06869525      -0.00406355      -0.01421361
Cu       8.91700563      10.83498638       1.80923503       0.02696337       0.04088620      -0.01415902
Cu      -0.13554104       3.51527545      10.85565022      -0.06323906      -0.03488370      -0.00536529
Cu       1.64996059       5.32086454      10.85371114       0.00049620       0.00953171       0.00644929
Cu      10.78299137       5.41016694       1.80858140       0.02086990       0.01231458      -0.00920733
Cu       1.75422894       3.59971757       1.81174492       0.00071054       0.01034539      -0.01542736
Cu       3.58668716       3.61415812       0.00645937      -0.01104315       0.03521452      -0.03512786
Cu       5.37307153       5.43219701       0.00012929       0.00253070      -0.04764503       0.01373520
Cu       3.55027698       5.40680900       1.81356296      -0.00910838       0.01387036      -0.02318227
Cu       5.37510764       3.59870645       1.81611399      -0.00397806       0.02309052      -0.06556235
Cu       7.09232260       3.50994082      10.85478620       0.01476578       0.01463061       0.02714360
Cu       8.88787837       5.32281025      10.84785829      -0.02099287      -0.06234199       0.05777994
Cu       7.16259329       5.41096947       1.80965744       0.02513738      -0.00339932      -0.01416251
Cu       8.99952672       3.59914855       1.81475439      -0.03356439       0.00210393      -0.04436905
Cu      10.66989968       7.13341719      10.84973364       0.03987237      -0.03963869       0.02041622
Cu       1.61123705       8.93062416      10.85287600       0.00860386       0.05402958       0.01567673
Cu      -0.10803788       9.02606945       1.80091767      -0.01076013       0.02555472       0.02649252
Cu       1.72235814       7.21635476       1.80420744      -0.01846740       0.01485577       0.00929339
Cu       3.55573250       7.23926546       0.00220397      -0.04378379      -0.01342311      -0.01240671
Cu       5.34251273       9.04274063       0.00383637      -0.01486051       0.04377809      -0.02867372
Cu       3.51056060       9.03259456       1.80887505       0.00145115       0.00096998       0.01056304
Cu       5.34046371       7.21742601       1.81171311      -0.01037732      -0.00405839       0.01492092
Cu       7.05618820       7.12937095      10.85475852       0.02201190      -0.01825688       0.02732896
Cu       8.94839700       9.05527031       0.00162567       0.04161822      -0.02951669      -0.02997145
Cu       7.12970589       9.02141122       1.81055489       0.01246609       0.02149914       0.00606106
Cu       8.96440500       7.21172694       1.81157014      -0.04926881       0.04371447      -0.01954458
Cu      -0.14370429      10.81934807       3.61835239      -0.01192840       0.00692453      -0.01272485
Cu       1.75766234       1.77948975       3.62238992      -0.03898092      -0.05458953      -0.00728421
Cu      10.78387502       1.74866427       5.43152562       0.01526074       0.03410856      -0.02929510
Cu       1.64389488      10.79596067       5.42810286       0.03598074       0.05812236       0.02168119
Cu       3.58673176      -0.02779982       3.62408539      -0.02526208      -0.06945850      -0.04440366
Cu       5.37508042       1.77154388       3.61379388      -0.00243408       0.00841676       0.03916749
Cu       3.55453213       1.74964087       5.42218813      -0.07006672       0.03735374       0.07247710
Cu       5.37741049      -0.05295210       5.42639566       0.01261442      -0.02218015       0.02390670
Cu       7.19765743      -0.03218029       3.61367653       0.03111128      -0.03027440       0.04141470
Cu       8.99371111       1.77157851       3.62041056       0.00129935       0.00609428      -0.01380645
Cu       7.16102633       1.75260219       5.42617529       0.02377338       0.00493564       0.02381761
Cu       8.99512783      -0.05297730       5.42941415      -0.03406853      -0.03960505      -0.02799986
Cu      -0.06621285       3.58223949       3.62231013      -0.04985231      -0.00715592      -0.01974538
Cu       1.71001841       5.39899168       3.62008521       0.04840102      -0.02277094       0.01225788
Cu      10.74727231       5.36575391       5.42978998       0.00246263       0.06610738      -0.00848454
Cu       1.71239137       3.56737580       5.42842072       0.05018143      -0.01104274       0.00793027
Cu       3.54168629       3.57838502       3.61371040       0.02765814       0.05529874       0.05990238
Cu       5.34211126       5.39026397       3.62291773      -0.02108241       0.01227412       0.01460812
Cu       3.51055130       5.36707548       5.43189005      -0.01207802       0.01907959      -0.06011482
Cu       5.33728865       3.55792830       5.43030542      -0.00181840       0.05655683      -0.00708899
Cu       7.16416378       3.57873892       3.61651394       0.01923663       0.01822417       0.02665663
Cu       8.95243595       5.39306235       3.61661229       0.04329388      -0.01477694       0.02157039
Cu       7.13863527       5.37298229       5.42824551      -0.08055553      -0.01467681      -0.00902012
Cu       8.95628451       3.56770151       5.42619906       0.01302020      -0.04008751      -0.00288275
Cu      10.74763318       7.20509274       3.61909580       0.00541062      -0.02674826       0.02176611
Cu       1.68037787       9.01175870       3.61296286       0.03231508      -0.01103761       0.02807217
Cu      10.71105671       8.99591850       5.42981321      -0.00318978      -0.02782339      -0.01736359
Cu       1.68433141       7.18831272       5.43123555      -0.01895443      -0.02529028      -0.02098228
Cu       3.50689870       7.20077286       3.61664888       0.02038223       0.00464026       0.03605784
Cu       5.29814310       9.01021048       3.61762700       0.00431140       0.00510309       0.01692263
Cu       3.47826017       8.99855716       5.43222713      -0.01711922      -0.01823403      -0.04626595
Cu       5.30100630       7.18172001       5.43394182      -0.00070982       0.00580225      -0.06534588
Cu       7.13437848       7.20883007       3.62523797      -0.03159887      -0.05741662      -0.03774238
Cu       8.92128809       9.01491936       3.61506240       0.01660403      -0.01637202       0.00785178
Cu       7.09422377       8.98963121       5.41783078      -0.01830033       0.05510837       0.07134534
Cu       8.92078587       7.18338711       5.43081868       0.04234651      -0.01060378      -0.03562197
Cu      10.67195235      10.78129079       7.23667883       0.03241341       0.00784249       0.00833658
Cu       1.71512823       1.74480890       7.23986906       0.04012031      -0.08512572      -0.03377460
Cu      10.74604720       1.71541774       9.04927735       0.01705062       0.02762095      -0.01384446
Cu       1.70885692      -0.08759064       9.05173209       0.06709853      -0.01947736      -0.03247723
Cu       3.55315591      -0.07251547       7.24650571      -0.07496891       0.03347135      -0.06250567
Cu       5.32967324       1.73819562       7.23532846       0.06543484      -0.00861227       0.01963619
Cu       3.50863509       1.72444562       9.04741654      -0.01148370      -0.03053459      -0.00076875
Cu       5.22839388      10.76102053       9.04106073       0.03754129       0.02846787       0.04631569
Cu       7.06463702      10.78023183       7.23990304      -0.04846129       0.00717351      -0.02930415
Cu       8.95671748       1.73454334       7.23006563      -0.01405274       0.02321902       0.01716766
Cu       7.13130605       1.72069445       9.05073942      -0.02179302      -0.01757447      -0.05628830
Cu       8.96067352      -0.07836579       9.04370371      -0.02369493      -0.10345261       0.00581267
Cu      -0.10573871       3.54091707       7.23853085      -0.03123564       0.03071475      -0.01971859
Cu       1.68008034       5.36082125       7.23789708      -0.00720048      -0.01658749       0.00027006
Cu      10.70707283       5.32907359       9.04646404       0.03805593       0.04991437      -0.00667419
Cu       1.68075593       3.52806953       9.04413480       0.02086458       0.01436451       0.03751991
Cu       3.50197830       3.55414994       7.24529310       0.04280271      -0.03953683      -0.05361855
Cu       5.30075054       5.36250669       7.23633687       0.03404478      -0.08154631       0.00718672
Cu       3.47747964       5.33903721       9.04882466      -0.01626328      -0.01708121       0.01368564
Cu       5.30677200       3.52367474       9.04605130      -0.03019472       0.05017591       0.00910796
Cu       7.13180335       3.54777748       7.23853042      -0.02315753      -0.00913477      -0.01029532
Cu       8.92391976       5.35489744       7.23410186      -0.01189533      -0.00526042       0.02744320
Cu       7.09401746       5.33878051       9.05519805      -0.00913906      -0.01572007      -0.06442244
Cu       8.92139742       3.51983261       9.03811346       0.00252440       0.04290724       0.05814654
Cu      10.70926439       7.16163673       7.23700527       0.03898387       0.01026507      -0.00834679
Cu       1.64981162       8.97620210       7.23549141      -0.00533453      -0.00710492       0.03243318
Cu      -0.18018763       8.95757026       9.04636254      -0.02239036       0.00259538       0.00310960
Cu       1.64552036       7.14797577       9.04421980       0.02249778      -0.00345919       0.00539911
Cu       3.47764880       7.16035854       7.23169879      -0.02907963       0.04300688       0.05102415
Cu       5.26107838       8.97664480       7.23835998       0.05733189      -0.01549218      -0.02337525
Cu       3.44037184       8.96298300       9.04666119      -0.02417596      -0.06044141       0.00596657
Cu       5.26661753       7.14064617       9.04772952      -0.00670263       0.04511513      -0.00819499
Cu       7.08988692       7.16243098       7.23072382       0.02094094       0.01457726       0.04704965
Cu       8.88699105       8.96151705       7.23811529      -0.01845667       0.07561324       0.00402620
Cu       7.05811914       8.95009750       9.04513821       0.00581202       0.03353197      -0.00203207
Cu       8.88718398       7.14511687       9.04675943      -0.02769442       0.01541821      -0.01516841
108
Lattice="10.857 0.0 0.0 -0.10829197 10.85645991 0.0 -0.10829197 -0.10937755 10.85590892" Properties=species:S:1:pos:R:3:forces:R:3 energy=-405.08963131 stress="-0.0009202320835663016 -0.005131787933526686 -0.005164198205481641 -0.005131787933526686 -0.0010374872585333385 -0.005228589102627855 -0.005164198205481641 -0.005228589102627855 -0.0011914517633186026" free_energy=-405.09396413 pbc="T T T"
Cu      -0.10172629      -0.10650262      10.85242504      -0.05718202      -0.06368901       0.05385206
Cu       1.68046003       1.69364213      10.85192317       0.03996780       0.04973019       0.07204669
Cu      10.81837230       1.78985341       1.79821281       0.01705410      -0.00956909       0.07639509
Cu       1.67576137      10.83319013       1.82339852       0.06096199       0.05450998      -0.08888180
Cu       3.62342329       0.00345727       0.00273363      -0.03291759      -0.03137999       0.00888506
Cu       5.30307291       1.68607190      10.84230288      -0.02069960       0.07003161       0.08473865
Cu       3.58465695       1.79417348       1.81746077      -0.01818191      -0.08611685      -0.08518893
Cu       5.32353066      10.83536620       1.81207353      -0.14368427      -0.00783062      -0.06098343
Cu       7.12928611      -0.10032136      10.84896374      -0.00847279      -0.06671972       0.00721723
Cu       8.92604054       1.69674580      10.84979791      -0.00673904       0.07224801       0.09401462
Cu       7.18832081       1.79977281       1.80587741       0.13502301      -0.00948866      -0.03289896
Cu       8.91285953      10.83174857       1.80914612       0.03994227       0.07408946      -0.01191470
Cu      -0.12670243       3.52110668      10.85539066      -0.11933683      -0.07327259      -0.00408329
Cu       1.65285570       5.32287807      10.85151423      -0.00103976       0.01042058       0.01439188
Cu      10.78118068       5.41033542       1.80783961       0.03962106       0.01464244      -0.01546009
Cu       1.75310036       3.59884985       1.81416568      -0.00084397       0.02742550      -0.04031802
Cu       3.59047348       3.60950515       0.01291343      -0.02952103       0.05992536      -0.06589113
Cu       5.37178943       5.43615667       0.00026065       0.00751086      -0.09571988       0.02934633
Cu       3.55375087       5.40361978       1.81780056      -0.03547781       0.02101707      -0.03058194
Cu       5.37586068       3.59682976       1.82289622      -0.00880012       0.03850252      -0.11261264
Cu       7.09103306       3.51044509      10.85366750       0.03959055       0.01674300       0.06007651
Cu       8.89069506       5.32675867      10.83981634      -0.04157991      -0.11521021       0.10716646
Cu       7.15938147       5.41193809       1.80999082       0.05382372      -0.00626990      -0.02120026
Cu       9.00569801       3.59771066       1.82018018      -0.07121816       0.01330898      -0.08566950
Cu      10.66329201       7.13856227      10.84356152       0.07641570      -0.07833911       0.03765680
Cu       1.61150704       8.92358779      10.84984535       0.03353473       0.09248944       0.03010777
Cu      -0.10778539       9.02332608       1.79251758      -0.02775931       0.03677302       0.05456001
Cu       1.72545319       7.21329774       1.79909442      -0.03511398       0.02137628       0.01547193
Cu       3.56465671       7.24088531       0.00440598      -0.09874972      -0.01616848      -0.02321994
Cu       5.34676654       9.03844151       0.00766840      -0.02966410       0.08919892      -0.05908549
Cu       3.51041709       9.03637242       1.80842996       0.00717777       0.00104368       0.01510626
Cu       5.34266937       7.21543742       1.81410673      -0.01854946       0.00095417       0.03616690
Cu       7.05486269       7.13047314      10.85361224       0.05727736      -0.02877746       0.05003075
Cu       8.93954707       9.06348968       0.00324679       0.07928624      -0.07233341      -0.05517256
Cu       7.12970215       9.01400901       1.81178899       0.01936488       0.04953751      -0.00322540
Cu       8.97154959       7.20404650       1.81381558      -0.10236395       0.09197338      -0.03813175
Cu      -0.14302116      10.81869638       3.61807024      -0.01944656       0.01812459      -0.02688258
Cu       1.75996107       1.78601659       3.62614606      -0.07575698      -0.11187230      -0.01047162
Cu      10.78294711       1.74260876       5.43509222       0.02503027       0.06399751      -0.06061574
Cu       1.64072963      10.79015897       5.42825463       0.07566168       0.10542187       0.03713012
Cu       3.59056070      -0.01915118       3.62953126      -0.05969370      -0.13854338      -0.09391770
Cu       5.37580643       1.77013445       3.60896105      -0.00074189       0.02933822       0.05971054
Cu       3.56225196       1.74456245       5.41643287      -0.14792167       0.08297523       0.13873804
Cu       5.38046892      -0.05121883       5.42484033       0.02686651      -0.04430525       0.04655242
Cu       7.19341318      -0.02790617       3.60872656       0.07682515      -0.05592260       0.06914443
Cu       8.99407217       1.77020345       3.62218615       0.00608926       0.01163509      -0.02801196
Cu       7.15624727       1.75048016       5.42439958       0.05306071       0.01989573       0.04619973
Cu       8.99690004      -0.05127198       5.43086949      -0.07355888      -0.07321471      -0.05059204
Cu      -0.06023858       3.58212061       3.62598453      -0.10442352      -0.02359034      -0.05324164
Cu       1.70078387       5.40620905       3.62153968       0.11117066      -0.04721251       0.01394765
Cu      10.74583694       5.35797676       5.43162408       0.00293746       0.13611697      -0.02388871
Cu       1.70553011       3.57062227       5.42888807       0.11215105      -0.03729133       0.01780229
Cu       3.53657494       3.57442111       3.60879723       0.05773894       0.10779036       0.12114461
Cu       5.34596261       5.38875895       3.62720495      -0.03450589       0.02266886       0.02773606
Cu       3.51039642       5.36061259       5.43581642      -0.02343369       0.03428499      -0.11012703
Cu       5.33632028       3.55173750       5.43265529       0.00014780       0.11769028      -0.01307248
Cu       7.16252138       3.57512332       3.61439910       0.03489427       0.03487685       0.04832542
Cu       8.94762530       5.39435157       3.61459505       0.07916696      -0.02208264       0.03662513