108
Lattice="10.6938 0.0 0.0 0.0 10.6938 0.0 0.0 0.0 10.6938" Properties=species:S:1:pos:R:3:forces:R:3 energy=-403.42686471 stress="-0.04749454690083067 -1.1590482446765212e-08 -3.503359072358273e-08 -1.1590482446765212e-08 -0.04749448580269784 1.3862391768586716e-08 -3.503359072358273e-08 1.3862391768586716e-08 -0.047494558403932" free_energy=-403.43823966 pbc="T T T"
Cu       0.00000000       0.00000000       0.00000000      -0.00002241       0.00001744       0.00000578
Cu       1.78230356       1.78230356       0.00000000      -0.00074279      -0.00072434       0.00000047
Cu       0.00000000       1.78230356       1.78230356       0.00001656      -0.00075393      -0.00071663
Cu       1.78230356       0.00000000       1.78230356      -0.00073087       0.00002294      -0.00070382
Cu       3.56459644       0.00000000       0.00000000      -0.00682818      -0.00002583      -0.00001107
Cu       5.34690000       1.78230356       0.00000000       0.00002873       0.00683464      -0.00003198
Cu       3.56459644       1.78230356       1.78230356       0.00092781      -0.00097168      -0.00092910
Cu       5.34690000       0.00000000       1.78230356       0.00000917      -0.00003166       0.00683857
Cu       7.12920356       0.00000000       0.00000000       0.00685169      -0.00002303      -0.00000608
Cu       8.91149644       1.78230356       0.00000000       0.00071683      -0.00074435      -0.00001323
Cu       7.12920356       1.78230356       1.78230356      -0.00094790      -0.00100194      -0.00097887
Cu       8.91149644       0.00000000       1.78230356       0.00072366       0.00002588      -0.00074199
Cu       0.00000000       3.56459644       0.00000000       0.00000877      -0.00683752       0.00001127
Cu       1.78230356       5.34690000       0.00000000       0.00685134       0.00000157       0.00002493
Cu       0.00000000       5.34690000       1.78230356       0.00001042       0.00001445       0.00683200
Cu       1.78230356       3.56459644       1.78230356      -0.00097358       0.00096468      -0.00095532
Cu       3.56459644       3.56459644       0.00000000       0.00074002       0.00076461      -0.00001704
Cu       5.34690000       5.34690000       0.00000000       0.00000210       0.00001093      -0.00001832
Cu       3.56459644       5.34690000       1.78230356       0.00073831       0.00000653      -0.00075938
Cu       5.34690000       3.56459644       1.78230356       0.00000493       0.00078175      -0.00076297
Cu       7.12920356       3.56459644       0.00000000      -0.00075014       0.00075536      -0.00002924
Cu       8.91149644       5.34690000       0.00000000      -0.00685314       0.00000452       0.00000203
Cu       7.12920356       5.34690000       1.78230356      -0.00074875       0.00002197      -0.00078119
Cu       8.91149644       3.56459644       1.78230356       0.00096751       0.00095496      -0.00099054
Cu       0.00000000       7.12920356       0.00000000      -0.00002621       0.00681859       0.00001454
Cu       1.78230356       8.91149644       0.00000000      -0.00068656       0.00072375       0.00000393
Cu       0.00000000       8.91149644       1.78230356      -0.00002227       0.00074115      -0.00074548
Cu       1.78230356       7.12920356       1.78230356      -0.00093017      -0.00098793      -0.00097737
Cu       3.56459644       7.12920356       0.00000000       0.00076768      -0.00074001      -0.00000437
Cu       5.34690000       8.91149644       0.00000000      -0.00000651      -0.00684408      -0.00000957
Cu       3.56459644       8.91149644       1.78230356       0.00097634       0.00096572      -0.00097894
Cu       5.34690000       7.12920356       1.78230356      -0.00002167      -0.00075298      -0.00078201
Cu       7.12920356       7.12920356       0.00000000      -0.00074025      -0.00073550      -0.00000749
Cu       8.91149644       8.91149644       0.00000000       0.00069112       0.00073808      -0.00000113
Cu       7.12920356       8.91149644       1.78230356      -0.00095198       0.00097899      -0.00100694
Cu       8.91149644       7.12920356       1.78230356       0.00095393      -0.00098190      -0.00098578
Cu       0.00000000       0.00000000       3.56459644      -0.00000193       0.00006442      -0.00680814
Cu       1.78230356       1.78230356       3.56459644      -0.00097819      -0.00098637       0.00096659
Cu       0.00000000       1.78230356       5.34690000      -0.00001810       0.00681975      -0.00001323
Cu       1.78230356       0.00000000       5.34690000       0.00680901       0.00003012      -0.00001841
Cu       3.56459644       0.00000000       3.56459644       0.00073481       0.00000405       0.00074288
Cu       5.34690000       1.78230356       3.56459644      -0.00000626      -0.00077311       0.00076231
Cu       3.56459644       1.78230356       5.34690000       0.00072894      -0.00076073      -0.00004064
Cu       5.34690000       0.00000000       5.34690000       0.00001714      -0.00002170      -0.00001271
Cu       7.12920356       0.00000000       3.56459644      -0.00073205       0.00000708       0.00076004
Cu       8.91149644       1.78230356       3.56459644       0.00098574      -0.00099976       0.00100633
Cu       7.12920356       1.78230356       5.34690000      -0.00071442      -0.00076256      -0.00002254
Cu       8.91149644       0.00000000       5.34690000      -0.00682793       0.00001468      -0.00001360
Cu       0.00000000       3.56459644       3.56459644      -0.00000130       0.00071937       0.00076646
Cu       1.78230356       5.34690000       3.56459644      -0.00074021       0.00000210       0.00073059
Cu       0.00000000       5.34690000       5.34690000       0.00001041      -0.00001955       0.00002835
Cu       1.78230356       3.56459644       5.34690000      -0.00076454       0.00074943       0.00000960
Cu       3.56459644       3.56459644       3.56459644       0.00094788       0.00097521       0.00096849
Cu       5.34690000       5.34690000       3.56459644      -0.00002120       0.00000809      -0.00681290
Cu       3.56459644       5.34690000       5.34690000      -0.00682849      -0.00000164      -0.00000165
Cu       5.34690000       3.56459644       5.34690000      -0.00001634      -0.00681106      -0.00001398
Cu       7.12920356       3.56459644       3.56459644      -0.00094719       0.00096521       0.00100575
Cu       8.91149644       5.34690000       3.56459644       0.00076018       0.00000186       0.00075275
Cu       7.12920356       5.34690000       5.34690000       0.00681836      -0.00001183      -0.00000289
Cu       8.91149644       3.56459644       5.34690000       0.00077755       0.00073652      -0.00000751
Cu       0.00000000       7.12920356       3.56459644       0.00000430      -0.00078394       0.00073417
Cu       1.78230356       8.91149644       3.56459644      -0.00094436       0.00098536       0.00096867
Cu       0.00000000       8.91149644       5.34690000       0.00001084      -0.00679853       0.00001747
Cu       1.78230356       7.12920356       5.34690000      -0.00076487      -0.00078064       0.00001984
Cu       3.56459644       7.12920356       3.56459644       0.00097732      -0.00097788       0.00096569
Cu       5.34690000       8.91149644       3.56459644      -0.00000585       0.00076583       0.00075577
Cu       3.56459644       8.91149644       5.34690000       0.00075922       0.00076065      -0.00000575
Cu       5.34690000       7.12920356       5.34690000       0.00001604       0.00683294      -0.00000015
Cu       7.12920356       7.12920356       3.56459644      -0.00097984      -0.00097536       0.00096493
Cu       8.91149644       8.91149644       3.56459644       0.00095015       0.00099736       0.00096996
Cu       7.12920356       8.91149644       5.34690000      -0.00076887       0.00077387       0.00001450
Cu       8.91149644       7.12920356       5.34690000       0.00074776      -0.00075037       0.00000848
Cu       0.00000000       0.00000000       7.12920356      -0.00000200       0.00001420       0.00680396
Cu       1.78230356       1.78230356       7.12920356      -0.00098904      -0.00097477      -0.00096725
Cu       0.00000000       1.78230356       8.91149644      -0.00000903      -0.00073413       0.00073053
Cu       1.78230356       0.00000000       8.91149644      -0.00072128       0.00001169       0.00072293
Cu       3.56459644       0.00000000       7.12920356       0.00073978      -0.00001387      -0.00073115
Cu       5.34690000       1.78230356       7.12920356       0.00000210      -0.00075321      -0.00073153
Cu       3.56459644       1.78230356       8.91149644       0.00095454      -0.00095908       0.00097010
Cu       5.34690000       0.00000000       8.91149644       0.00001218      -0.00002504      -0.00682593
Cu       7.12920356       0.00000000       7.12920356      -0.00073905      -0.00002477      -0.00075248
Cu       8.91149644       1.78230356       7.12920356       0.00098895      -0.00096976      -0.00099124
Cu       7.12920356       1.78230356       8.91149644      -0.00094753      -0.00097184       0.00100063
Cu       8.91149644       0.00000000       8.91149644       0.00071075      -0.00000305       0.00075631
Cu       0.00000000       3.56459644       7.12920356       0.00000015       0.00075499      -0.00077894
Cu       1.78230356       5.34690000       7.12920356      -0.00076944      -0.00000101      -0.00075438
Cu       0.00000000       5.34690000       8.91149644       0.00001233      -0.00000957      -0.00685925
Cu       1.78230356       3.56459644       8.91149644      -0.00096518       0.00097248       0.00094623
Cu       3.56459644       3.56459644       7.12920356       0.00095845       0.00099014      -0.00094800
Cu       5.34690000       5.34690000       7.12920356       0.00000508       0.00001300       0.00683044
Cu       3.56459644       5.34690000       8.91149644       0.00075614       0.00001133       0.00076060
Cu       5.34690000       3.56459644       8.91149644       0.00000221       0.00075801       0.00077871
Cu       7.12920356       3.56459644       7.12920356      -0.00095962       0.00097454      -0.00097518
Cu       8.91149644       5.34690000       7.12920356       0.00076524      -0.00002250      -0.00075547
Cu       7.12920356       5.34690000       8.91149644      -0.00076692       0.00000547       0.00078360
Cu       8.91149644       3.56459644       8.91149644       0.00095963       0.00095738       0.00099582
Cu       0.00000000       7.12920356       7.12920356       0.00003414      -0.00076941      -0.00074793
Cu       1.78230356       8.91149644       7.12920356      -0.00097160       0.00097790      -0.00097030
Cu       0.00000000       8.91149644       8.91149644      -0.00002253       0.00074244       0.00072938
Cu       1.78230356       7.12920356       8.91149644      -0.00094232      -0.00098323       0.00095794
Cu       3.56459644       7.12920356       7.12920356       0.00097101      -0.00097609      -0.00096012
Cu       5.34690000       8.91149644       7.12920356       0.00002378       0.00074131      -0.00074688
Cu       3.56459644       8.91149644       8.91149644       0.00098982       0.00094598       0.00098237
Cu       5.34690000       7.12920356       8.91149644      -0.00000072      -0.00073691       0.00078003
Cu       7.12920356       7.12920356       7.12920356      -0.00100624      -0.00095005      -0.00095583
Cu       8.91149644       8.91149644       7.12920356       0.00095258       0.00099342      -0.00096825
Cu       7.12920356       8.91149644       8.91149644      -0.00096750       0.00096837       0.00099242
Cu       8.91149644       7.12920356       8.91149644       0.00094367      -0.00095448       0.00098027
108
Lattice="10.6938 0.0 0.0 0.0 10.6938 0.0 0.0 0.0 10.6938" Properties=species:S:1:pos:R:3:forces:R:3 energy=-403.4027646 stress="-0.04723328634156038 -9.165412732503656e-06 -2.020563749322187e-07 -9.165412732503656e-06 -0.04722705772115084 2.2278448915436826e-05 -2.020563749322187e-07 2.2278448915436826e-05 -0.047200207579012" free_energy=-403.41411122 pbc="T T T"
Cu       0.00292219      10.69014625      10.68927781      -0.02006776       0.07706747       0.05146580
Cu       1.78824237       1.78473427       0.00265495      -0.03745205      -0.02762091      -0.00764544
Cu      10.69311506       1.78026618       1.78290541       0.00828310       0.01569267      -0.01331027
Cu       1.78294851      10.68975058       1.78214465      -0.00965974       0.04846852       0.01410251
Cu       3.56267262       0.00199290       0.00628389      -0.00604252       0.00743973      -0.05279631
Cu       5.34984325       1.77488046       0.00093806      -0.05368856       0.06305762      -0.03060815
Cu       3.56937828       1.78569692       1.78156537      -0.04805512      -0.02238396       0.02141553
Cu       5.34892198       0.00157434       1.78143095       0.00834926      -0.04840247       0.01275960
Cu       7.13056713       0.00998876      10.68726534       0.02571366      -0.12095840       0.06303924
Cu       8.91362236       1.78393244      10.68978106       0.00388071       0.00222309       0.04958431
Cu       7.12496123       1.77823907       1.78010684       0.06911855       0.03101835       0.02513892
Cu       8.91054683      10.69361275       1.78151265      -0.00448915       0.01842216       0.02469249
Cu       0.00703577       3.56216648      10.68995996      -0.05470744       0.02204352       0.03694704
Cu       1.78387598       5.35432995       0.00650461       0.01640529      -0.07951979      -0.05759277
Cu      10.69372268       5.33649055       1.77942415      -0.00804451       0.06570269       0.02154059
Cu       1.78376862       3.56775945       1.78752460       0.00721218      -0.03307737      -0.02896352
Cu       3.56635567       3.55572753      10.68625424       0.00411270       0.08177208       0.04247855
Cu       5.34950383       5.34625067       0.00448455      -0.04120018       0.00408844      -0.07745388
Cu       3.56322838       5.34694491       1.78454156       0.01884405      -0.01150320      -0.04826255
Cu       5.35145289       3.56152828       1.77430236      -0.05150439       0.03732493       0.04188734
Cu       7.12969377       3.56174761       0.00236183       0.02562434       0.01867935      -0.01987813
Cu       8.90423780       5.35211312       0.00509656       0.05791586      -0.06837565      -0.03429060
Cu       7.12356761       5.34982133       1.78815821       0.02404572      -0.02443483      -0.02104642
Cu       8.91096581       3.56255093       1.78688329      -0.00445714      -0.00492831      -0.03157591
Cu       0.00716506       7.13705025      10.68876269      -0.08142510      -0.05432883       0.02672078
Cu       1.77840952       8.91737589       0.00104521       0.04362792      -0.04126229      -0.00961459
Cu      10.69068361       8.91226489       1.78116029       0.00444708       0.00189456       0.03771810
Cu       1.77646539       7.12931029       1.77569587       0.03075248       0.01935771       0.04909671
Cu       3.56493981       7.12997288      10.69156446       0.02196428       0.01807342       0.02409504
Cu       5.34752045       8.92290415      10.69276933       0.02479120      -0.09550637       0.01966889
Cu       3.56167275       8.91219977       1.78299503       0.02402700      -0.02051076      -0.03429240
Cu       5.34720349       7.13224028       1.78589978       0.00410397       0.00014407      -0.05529648
Cu       7.13203207       7.12526097      10.68996745      -0.05106360       0.04580750       0.03080556
Cu       8.91579588       8.91559259       0.01224675      -0.05117961      -0.04231044      -0.09684180
Cu       7.13549184       8.90292749       1.78609420      -0.03922629       0.05319982      -0.03780961
Cu       8.91602793       7.12282674       1.78610179      -0.00850929       0.02150232      -0.03966607
Cu      10.69332252      10.69252049       3.56386958      -0.01593284       0.00955907      -0.00166993
Cu       1.78277398       1.78111388       3.56127462       0.01190283      -0.00723657       0.00971997
Cu      10.69121349       1.78646762       5.34765755       0.03392017      -0.01805349      -0.00866452
Cu       1.78428598       0.00006673       5.34255800       0.00517495       0.00100766       0.00812433
Cu       3.57153201      10.68684368       3.56132734      -0.04175667       0.06463264       0.02585796
Cu       5.34349723       1.78394410       3.55838708       0.01152072       0.00416460       0.05481149
Cu       3.56030630       1.78911680       5.34497929       0.02351850      -0.06374685       0.00744048
Cu       5.34669029       0.00303586       5.34951292       0.00456150      -0.02332525      -0.02572662
Cu       7.12466875       0.00297705       3.56305300       0.04191649      -0.03765574       0.04369038
Cu       8.91181404       1.78048102       3.56850448      -0.00511752      -0.00016861      -0.03757097
Cu       7.13328988       1.78603912       5.34297334      -0.04029015      -0.03227442       0.01380837
Cu       8.91857776      10.69299476       5.35586301      -0.08854962      -0.00506647      -0.07573558
Cu      10.69290963       3.56424076       3.57157414       0.00355670      -0.00096959      -0.04620448
Cu       1.78332803       5.35837252       3.56167500      -0.01230634      -0.05646068       0.04099488
Cu      10.68643593       5.34335426       5.34196385       0.05660713       0.03900730       0.06458440
Cu       1.77851197       3.56269112       5.34509414       0.02006665       0.03326126       0.00780027
Cu       3.56574057       3.56695838       3.56583905      -0.01857489      -0.01357525      -0.01444519
Cu       5.33518280       5.34580132       3.56650261       0.08030187      -0.01597470      -0.03483333
Cu       3.56555546       5.34486326       5.34608588      -0.07848039       0.03040143       0.03019388
Cu       5.34580955       3.56251339       5.34951046       0.00325061      -0.01836580      -0.02278630
Cu       7.12473345       3.56563202       3.56142412       0.02380095       0.00011263       0.02371042
Cu       8.91205818       5.34864288       3.56529581      -0.01561280      -0.03518853       0.01946951
Cu       7.12200225       5.34339971       5.35078506       0.07908623       0.03465282      -0.07025862
Cu       8.90665353       3.56298937       5.35251970       0.02077815       0.02768896      -0.03947456
Cu      10.69301465       7.13111861       3.56393353       0.02338416      -0.01562393      -0.01359810
Cu       1.78097967       8.91285123       3.56129986       0.01655615      -0.03251536       0.02132673
Cu       0.00198156       8.91225580       5.34343467       0.00859012      -0.00179709       0.05303146
Cu       1.78117633       7.13431991       5.35135803       0.02225274      -0.05290711      -0.03712470
Cu       3.56843369       7.13222371       3.55834463      -0.07577860       0.00788389       0.04401568
Cu       5.34700790       8.90925480       3.55992292       0.04121937       0.01199838       0.03855193
Cu       3.56622735       8.91421844       5.34644348       0.00643726      -0.02624928      -0.01335135
Cu       5.34306948       7.12480456       5.34130073       0.01476403       0.07267762       0.04688605
Cu       7.13211271       7.12145847       3.56732646      -0.03968170       0.02057777       0.00925436
Cu       8.90651526       8.90553047       3.56919317       0.02616381       0.07551180      -0.04345280
Cu       7.13194267       8.90275361       5.34818678      -0.04268880       0.07214811       0.01089842
Cu       8.91863572       7.13978070       5.34456415      -0.04236992      -0.10342288       0.05464393
Cu       0.00182180       0.00627117       7.12436227       0.00454617      -0.06127163       0.07201596
Cu       1.78210102       1.77221461       7.13059707      -0.00588873       0.07568600      -0.01619985
Cu      10.69135935       1.78466561       8.91030279       0.04118773      -0.03744164       0.00673765
Cu       1.78315329      10.69139464       8.91321685      -0.01078126       0.03014754      -0.00735578
Cu       3.56125644      10.68993772       7.13127292       0.04204160       0.03063688      -0.02548194
Cu       5.34856160       1.78667808       7.13257094      -0.01633950      -0.03919169      -0.04927533
Cu       3.56478711       1.78459140       8.90226159      -0.00319868      -0.04144693       0.06001521
Cu       5.34658357       0.00205257       8.91510869      -0.01786186      -0.03962479      -0.06461163
Cu       7.12525071       0.00339999       7.12737835       0.01941009      -0.03075922       0.00219894
Cu       8.91159129       1.78490152       7.12878843      -0.01579759      -0.02458381       0.02747560
Cu       7.12387966       1.77812133       8.91204759       0.06610452       0.05100070      -0.02271406
Cu       8.90835962       0.00238760       8.91811739       0.02871206      -0.01317801      -0.05683784
Cu       0.00470121       3.56523667       7.13177500      -0.03004936       0.00598139      -0.01454193
Cu       1.77914451       5.34318455       7.13508056       0.02113916       0.01517275      -0.07015165
Cu      10.69205627       5.35185647       8.91016420      -0.01022039      -0.04378157       0.03940166
Cu       1.78319992       3.56342899       8.91462769      -0.01040651       0.01356901      -0.02152358
Cu       3.56233106       3.56245457       7.12884137       0.00062029       0.03043137       0.00135774
Cu       5.34633601       5.35197549       7.12074145      -0.02659697      -0.03743065       0.09930336
Cu       3.56134413       5.34800264       8.90843758       0.06030761      -0.03594723       0.02401489
Cu       5.35414366       3.55849787       8.90880459      -0.05438616       0.07799015       0.01251223
Cu       7.13145611       3.56639759       7.12569429      -0.03199499      -0.03844897       0.04477015
Cu       8.90170637       5.34730059       7.13358984       0.10363152      -0.00803869      -0.04771857
Cu       7.13098857       5.34240604       8.90440399      -0.04630414       0.01132637       0.06149367
Cu       8.91638361       3.55946983       8.91248786      -0.04578378       0.05378855       0.00482414
Cu       0.00245669       7.12434195       7.12973665      -0.03636485       0.03469642       0.00092287
Cu       1.78737285       8.90760304       7.12891718      -0.07183716       0.04808908       0.00696421
Cu       0.00003636       8.91445423       8.91227377      -0.00706544      -0.02200589      -0.03683501
Cu       1.78558592       7.12624962       8.91066606      -0.03565738       0.04362474       0.01464860
Cu       3.56040318       7.13377431       7.13457816       0.02622256      -0.04342463      -0.05769653
Cu       5.34425371       8.90832551       7.13268023       0.03637005       0.00737153      -0.02931866
Cu       3.56018845       8.91438205       8.91325204       0.03300258      -0.00451006       0.02349056
Cu       5.34253960       7.13344751       8.90994070       0.04562588      -0.03733742       0.01746022
Cu       7.13654015       7.12323899       7.12591693      -0.06254006       0.06240448       0.00729610
Cu       8.91523381       8.91775381       7.13524000      -0.00105357      -0.03686109      -0.03029043
Cu       7.13541666       8.90562340       8.90811602      -0.03840719       0.04868746       0.02860246
Cu       8.90592678       7.12757554       8.91400520       0.07298707       0.03614165      -0.00716424
108
Lattice="10.6938 0.0 0.0 0.0 10.6938 0.0 0.0 0.0 10.6938" Properties=species:S:1:pos:R:3:forces:R:3 energy=-403.33141479 stress="-0.04748570274481439 1.3242378976548852e-05 4.506096834938911e-05 1.3242378976548852e-05 -0.04743414736138934 1.963088812536491e-05 4.506096834938911e-05 1.963088812536491e-05 -0.04747440145645146" free_energy=-403.3426799 pbc="T T T"
Cu       0.00584138      10.68650415      10.68476342      -0.03468430       0.14468594       0.08552723
Cu       1.79417561       1.78716069       0.00530872      -0.08919197      -0.06664940      -0.02286179
Cu      10.69243141       1.77823126       1.78350523       0.01468147       0.02658733      -0.02423499
Cu       1.78359217      10.68570864       1.78198788      -0.01846509       0.10555717       0.02655126
Cu       3.56074806       0.00398686       0.01255965      -0.00330229       0.01577418      -0.09973509
Cu       5.35277849       1.76746709       0.00187141      -0.09681948       0.11036812      -0.05763191
Cu       3.57415295       1.78908696       1.78083039      -0.08338937      -0.03472736       0.03972560
Cu       5.35094525       0.00314141       1.78056015       0.01001244      -0.09975495       0.01390211
Cu       7.13193465       0.01995912      10.68074020       0.03580109      -0.22692283       0.12376706
Cu       8.91574893       1.78556164      10.68576960       0.01022183       0.00468551       0.10527392
Cu       7.12072937       1.77417927       1.77791376       0.13007555       0.05372127       0.04640193
Cu       8.90959668      10.69342839       1.78072537      -0.01243882       0.03831511       0.04617408
Cu       0.01406331       3.55973985      10.68612549      -0.09592116       0.05690505       0.07036196
Cu       1.78545107       5.36174791       0.01300045       0.01726352      -0.15015203      -0.11309662
Cu      10.69364419       5.32609104       1.77654805      -0.01967599       0.11736796       0.02710843
Cu       1.78523484       3.57091743       1.79274125       0.00953087      -0.05713189      -0.04823813
Cu       3.56811566       3.54687103      10.67871490       0.01183087       0.17534300       0.08544007
Cu       5.35210146       5.34560188       0.00895734      -0.06574457       0.01002307      -0.13896159
Cu       3.56186331       5.34698812       1.78677218       0.03830063      -0.02153104      -0.09376930
Cu       5.35599796       3.55846568       1.76630746      -0.09994877       0.06953979       0.08937828
Cu       7.13018804       3.55890167       0.00472056       0.04923765       0.04021102      -0.04626651
Cu       8.89698805       5.35731598       0.01018798       0.13349099      -0.13234893      -0.06319168
Cu       7.11793529       5.35273903       1.79400953       0.05853168      -0.05085239      -0.05024539
Cu       8.91043465       3.56050467       1.79145821      -0.01388208      -0.00409761      -0.06197878
Cu       0.01431782       7.14488859      10.68372943      -0.15315160      -0.12181175       0.04889222
Cu       1.77452222       8.92324903       0.00208882       0.09127216      -0.09699021      -0.02394172
Cu      10.68756797       8.91303378       1.78002268       0.01841697       0.00476038       0.07797443
Cu       1.77063182       7.12941990       1.76909555       0.05729923       0.03944048       0.08960633
Cu       3.56528651       7.13074497      10.68933256       0.04561619       0.03455194       0.05196951
Cu       5.34814476       8.93429743      10.69174155       0.05153644      -0.16334848       0.03663899
Cu       3.55875281       8.91290010       1.78368125       0.04081904      -0.04650461      -0.07139242
Cu       5.34750773       7.13527700       1.78948745       0.00608492      -0.00860339      -0.12026222
Cu       7.13485278       7.12132544      10.68613950      -0.10494273       0.09530040       0.06493588
Cu       8.92008762       8.91968233       0.02447886      -0.10808010      -0.08572174      -0.19935862
Cu       7.14177434       8.89436668       1.78987905      -0.08147272       0.11050980      -0.07512766
Cu       8.92055825       7.11645313       1.78989402      -0.00668130       0.04304581      -0.06530819
Cu      10.69284258      10.69124236       3.56314229      -0.03193789       0.01635113       0.00415507
Cu       1.78324633       1.77992312       3.55795420       0.01948310      -0.01263672       0.00942596
Cu      10.68863222       1.79062890       5.34841371       0.06704746      -0.04277340      -0.01718660
Cu       1.78626915       0.00013357       5.33821706       0.00447676       0.00292617       0.01558520
Cu       3.57846137      10.67989731       3.55806210      -0.07981837       0.13853111       0.04821237
Cu       5.34009618       1.78558538       3.55218607       0.03131946       0.00182281       0.12216535
Cu       3.55601990       1.79592041       5.34305975       0.06663401      -0.13820818       0.01255192
Cu       5.34648134       0.00606809       5.35212200       0.00788051      -0.02690273      -0.03666950
Cu       7.12014036       0.00594843       3.56151609       0.08818062      -0.08027544       0.08872870
Cu       8.91213090       1.77865858       3.57240676      -0.02082912      -0.00248439      -0.06633012
Cu       7.13737010       1.78976976       5.33904883      -0.09060741      -0.07731212       0.03876985
Cu       8.92564583      10.69218887       5.36481447      -0.15403412      -0.01391691      -0.13729226
Cu      10.69202002       3.56388498       3.57854468       0.00701729       0.00222299      -0.11209269
Cu       1.78435068       5.36983649       3.55875976      -0.02046113      -0.11508897       0.08208352
Cu      10.67908063       5.33981440       5.33703732       0.11027770       0.07944052       0.12230071
Cu       1.77472359       3.56079094       5.34328935       0.04415448       0.07215948       0.02089959
Cu       3.56688191       3.56931828       3.56707943      -0.04399561      -0.03596910      -0.03455211
Cu       5.32347780       5.34470018       3.56840332       0.14755746      -0.03579357      -0.06027397
Cu       3.56650261       5.34283122       5.34527625      -0.15124021       0.06385283       0.06102103
Cu       5.34471975       3.56042767       5.35211751       0.00614491      -0.03111520      -0.04563791
Cu       7.12026697       3.56666772       3.55825533       0.03669931       0.00191617       0.04105763
Cu       8.91261757       5.35038040       3.56599807      -0.02963090      -0.06848562       0.03888893
Cu       7.11481313       5.33990465       5.35465931       0.13246416       0.05447205      -0.13246486