108
Lattice="11.0196 0.0 0.0 0.0 11.0196 0.0 0.0 0.0 10.8567" Properties=species:S:1:pos:R:3:forces:R:3 energy=-405.11916449 stress="0.02546397477678137 5.415133317616315e-08 -2.8055583520845247e-08 5.415133317616315e-08 0.025463998070093422 6.9717656936116e-08 -2.8055583520845247e-08 6.9717656936116e-08 0.023404201885854906" free_energy=-405.12796313 pbc="T T T"
Cu       0.00000000       0.00000000       0.00000000      -0.00001377      -0.00001677       0.00002684
Cu       1.83660367       1.83660367       0.00000000      -0.00813597      -0.00813415       0.00001242
Cu       0.00000000       1.83660367       1.80945362       0.00001002      -0.00863937      -0.01395780
Cu       1.83660367       0.00000000       1.80945362      -0.00863304      -0.00001423      -0.01395276
Cu       3.67319633       0.00000000       0.00000000       0.01072915      -0.00001226       0.00001211
Cu       5.50980000       1.83660367       0.00000000       0.00000267      -0.01072739      -0.00001818
Cu       3.67319633       1.83660367       1.80945362       0.00036225      -0.00036908      -0.00360226
Cu       5.50980000       0.00000000       1.80945362      -0.00000001      -0.00001719      -0.00367784
Cu       7.34640367       0.00000000       0.00000000      -0.01071383      -0.00001404      -0.00000161
Cu       9.18299633       1.83660367       0.00000000       0.00813384      -0.00816125      -0.00001588
Cu       7.34640367       1.83660367       1.80945362      -0.00037229      -0.00040941      -0.00363647
Cu       9.18299633       0.00000000       1.80945362       0.00863099      -0.00001326      -0.01399441
Cu       0.00000000       3.67319633       0.00000000      -0.00001542       0.01073669      -0.00000580
Cu       1.83660367       5.50980000       0.00000000      -0.01071522      -0.00000075       0.00001054
Cu       0.00000000       5.50980000       1.80945362       0.00000896       0.00001437      -0.00368422
Cu       1.83660367       3.67319633       1.80945362      -0.00036258       0.00036045      -0.00360769
Cu       3.67319633       3.67319633       0.00000000       0.00815448       0.00814553      -0.00001229
Cu       5.50980000       5.50980000       0.00000000       0.00001356      -0.00000154      -0.00002080
Cu       3.67319633       5.50980000       1.80945362       0.00861333      -0.00000683      -0.01397633
Cu       5.50980000       3.67319633       1.80945362      -0.00001841       0.00863643      -0.01397460
Cu       7.34640367       3.67319633       0.00000000      -0.00814039       0.00817113      -0.00003297
Cu       9.18299633       5.50980000       0.00000000       0.01070305       0.00001179      -0.00001309
Cu       7.34640367       5.50980000       1.80945362      -0.00862290       0.00002136      -0.01400478
Cu       9.18299633       3.67319633       1.80945362       0.00038164       0.00038911      -0.00363948
Cu       0.00000000       7.34640367       0.00000000      -0.00001374      -0.01071961       0.00003173
Cu       1.83660367       9.18299633       0.00000000      -0.00814011       0.00813593       0.00004079
Cu       0.00000000       9.18299633       1.80945362       0.00001858       0.00862541      -0.01398273
Cu       1.83660367       7.34640367       1.80945362      -0.00038615      -0.00034780      -0.00362443
Cu       3.67319633       7.34640367       0.00000000       0.00813868      -0.00813506       0.00000816
Cu       5.50980000       9.18299633       0.00000000       0.00001920       0.01073151       0.00000320
Cu       3.67319633       9.18299633       1.80945362       0.00036303       0.00037667      -0.00362218
Cu       5.50980000       7.34640367       1.80945362       0.00001477      -0.00861967      -0.01398463
Cu       7.34640367       7.34640367       0.00000000      -0.00812358      -0.00815596      -0.00000011
Cu       9.18299633       9.18299633       0.00000000       0.00811946       0.00814861       0.00002048
Cu       7.34640367       9.18299633       1.80945362      -0.00038012       0.00038947      -0.00365689
Cu       9.18299633       7.34640367       1.80945362       0.00037214      -0.00037620      -0.00365805
Cu       0.00000000       0.00000000       3.61889638       0.00000276      -0.00000212       0.00368394
Cu       1.83660367       1.83660367       3.61889638      -0.00035747      -0.00036576       0.00362028
Cu       0.00000000       1.83660367       5.42835000       0.00001265      -0.01071455      -0.00000390
Cu       1.83660367       0.00000000       5.42835000      -0.01072058       0.00001844       0.00000037
Cu       3.67319633       0.00000000       3.61889638       0.00863305       0.00000014       0.01395367
Cu       5.50980000       1.83660367       3.61889638      -0.00001781      -0.00863870       0.01398721
Cu       3.67319633       1.83660367       5.42835000       0.00812886      -0.00812941       0.00000998
Cu       5.50980000       0.00000000       5.42835000      -0.00000137      -0.00000518      -0.00000368
Cu       7.34640367       0.00000000       3.61889638      -0.00863503       0.00000389       0.01397971
Cu       9.18299633       1.83660367       3.61889638       0.00037282      -0.00038622       0.00366348
Cu       7.34640367       1.83660367       5.42835000      -0.00814194      -0.00813639      -0.00000956
Cu       9.18299633       0.00000000       5.42835000       0.01072257       0.00000399      -0.00001025
Cu       0.00000000       3.67319633       3.61889638       0.00001183       0.00862878       0.01398737
Cu       1.83660367       5.50980000       3.61889638      -0.00864289      -0.00000191       0.01396749
Cu       0.00000000       5.50980000       5.42835000      -0.00002085       0.00001257       0.00001842
Cu       1.83660367       3.67319633       5.42835000      -0.00814004       0.00812632       0.00000692
Cu       3.67319633       3.67319633       3.61889638       0.00035912       0.00035477       0.00363284
Cu       5.50980000       5.50980000       3.61889638      -0.00000458      -0.00000541       0.00369664
Cu       3.67319633       5.50980000       5.42835000       0.01072425      -0.00001273       0.00000870
Cu       5.50980000       3.67319633       5.42835000      -0.00001008       0.01070068       0.00000836
Cu       7.34640367       3.67319633       3.61889638      -0.00037076       0.00036449       0.00365311
Cu       9.18299633       5.50980000       3.61889638       0.00864389       0.00001142       0.01398844
Cu       7.34640367       5.50980000       5.42835000      -0.01070084      -0.00000764       0.00001166
Cu       9.18299633       3.67319633       5.42835000       0.00814975       0.00814979       0.00000803
Cu       0.00000000       7.34640367       3.61889638       0.00001538      -0.00862502       0.01397770
Cu       1.83660367       9.18299633       3.61889638      -0.00038456       0.00036619       0.00361002
Cu       0.00000000       9.18299633       5.42835000      -0.00001214       0.01070176       0.00000101
Cu       1.83660367       7.34640367       5.42835000      -0.00816801      -0.00814373      -0.00000076
Cu       3.67319633       7.34640367       3.61889638       0.00036210      -0.00035531       0.00363209
Cu       5.50980000       9.18299633       3.61889638      -0.00000371       0.00864398       0.01397282
Cu       3.67319633       9.18299633       5.42835000       0.00816589       0.00814185      -0.00000156
Cu       5.50980000       7.34640367       5.42835000      -0.00001301      -0.01069705      -0.00000459
Cu       7.34640367       7.34640367       3.61889638      -0.00037642      -0.00036822       0.00363230
Cu       9.18299633       9.18299633       3.61889638       0.00038755       0.00037448       0.00363940
Cu       7.34640367       9.18299633       5.42835000      -0.00815251       0.00814499      -0.00000557
Cu       9.18299633       7.34640367       5.42835000       0.00818115      -0.00815200       0.00001189
Cu       0.00000000       0.00000000       7.23780362       0.00000933       0.00001238      -0.00370958
Cu       1.83660367       1.83660367       7.23780362      -0.00035898      -0.00036908      -0.00363458
Cu       0.00000000       1.83660367       9.04724638       0.00001323      -0.00862342       0.01396099
Cu       1.83660367       0.00000000       9.04724638      -0.00862018       0.00002043       0.01395300
Cu       3.67319633       0.00000000       7.23780362       0.00863271       0.00001474      -0.01396360
Cu       5.50980000       1.83660367       7.23780362      -0.00000205      -0.00861313      -0.01396763
Cu       3.67319633       1.83660367       9.04724638       0.00037641      -0.00035502       0.00359250
Cu       5.50980000       0.00000000       9.04724638       0.00001097      -0.00000606       0.00368164
Cu       7.34640367       0.00000000       7.23780362      -0.00864268      -0.00000409      -0.01397608
Cu       9.18299633       1.83660367       7.23780362       0.00036204      -0.00036017      -0.00364784
Cu       7.34640367       1.83660367       9.04724638      -0.00039065      -0.00036693       0.00364462
Cu       9.18299633       0.00000000       9.04724638       0.00860749      -0.00000299       0.01400578
Cu       0.00000000       3.67319633       7.23780362       0.00000216       0.00864704      -0.01398345
Cu       1.83660367       5.50980000       7.23780362      -0.00863390      -0.00000200      -0.01397901
Cu       0.00000000       5.50980000       9.04724638      -0.00003452      -0.00000401       0.00366620
Cu       1.83660367       3.67319633       9.04724638      -0.00035928       0.00036585       0.00360234
Cu       3.67319633       3.67319633       7.23780362       0.00036965       0.00036089      -0.00362254
Cu       5.50980000       5.50980000       7.23780362      -0.00002024      -0.00002506      -0.00367387
Cu       3.67319633       5.50980000       9.04724638       0.00865015      -0.00002251       0.01396842
Cu       5.50980000       3.67319633       9.04724638      -0.00000163       0.00863551       0.01396636
Cu       7.34640367       3.67319633       7.23780362      -0.00037407       0.00037760      -0.00362004
Cu       9.18299633       5.50980000       7.23780362       0.00865191      -0.00000942      -0.01397583
Cu       7.34640367       5.50980000       9.04724638      -0.00861688      -0.00002016       0.01398988
Cu       9.18299633       3.67319633       9.04724638       0.00036251       0.00040395       0.00362965
Cu       0.00000000       7.34640367       7.23780362      -0.00002507      -0.00866091      -0.01400971
Cu       1.83660367       9.18299633       7.23780362      -0.00036647       0.00037026      -0.00365187
Cu       0.00000000       9.18299633       9.04724638      -0.00001563       0.00862768       0.01398239
Cu       1.83660367       7.34640367       9.04724638      -0.00036369      -0.00038644       0.00362557
Cu       3.67319633       7.34640367       7.23780362       0.00038771      -0.00037695      -0.00363896
Cu       5.50980000       9.18299633       7.23780362      -0.00001990       0.00864057      -0.01397438
Cu       3.67319633       9.18299633       9.04724638       0.00039599       0.00037868       0.00362404
Cu       5.50980000       7.34640367       9.04724638      -0.00000340      -0.00863104       0.01398901
Cu       7.34640367       7.34640367       7.23780362      -0.00036168      -0.00037318      -0.00363250
Cu       9.18299633       9.18299633       7.23780362       0.00038679       0.00036998      -0.00365965
Cu       7.34640367       9.18299633       9.04724638      -0.00037868       0.00038747       0.00366401
Cu       9.18299633       7.34640367       9.04724638       0.00036822      -0.00039979       0.00364480
108
Lattice="11.0196 0.0 0.0 0.0 11.0196 0.0 0.0 0.0 10.8567" Properties=species:S:1:pos:R:3:forces:R:3 energy=-405.10046369 stress="0.02555579500938877 1.9473689476520417e-05 -1.0687261178140392e-05 1.9473689476520417e-05 0.025550061103475564 1.2834827155156053e-05 -1.0687261178140392e-05 1.2834827155156053e-05 0.02328793273201656" free_energy=-405.10924514 pbc="T T T"
Cu      11.01802034       0.00484774      10.85243875       0.01746797      -0.02502781       0.04645991
Cu       1.83958337       1.83266516      10.85501102      -0.04076681       0.01357728       0.00916561
Cu      11.01723773       1.83539659       1.81291452       0.01471681      -0.00348606      -0.04701935
Cu       1.83633358       0.00283865       1.80617500      -0.01165656      -0.04524016       0.00461297
Cu       3.67423592      11.01742561       0.00229294       0.00731598       0.00598539      -0.02359833
Cu       5.50755332       1.83519900       0.00335233      -0.01042823       0.00351665      -0.02878826
Cu       3.67506007       1.83819612       1.81010242       0.00239085      -0.01906429      -0.00182246
Cu       5.51207081      11.01594998       1.80856272      -0.01321968       0.01508880       0.00954564
Cu       7.34568531       0.00668526      10.85496152       0.00354642      -0.02817599       0.00371795
Cu       9.18134405       1.83789065      10.85627409       0.02260334      -0.01077219       0.00470794
Cu       7.34779302       1.84132535       1.81006127      -0.01767341      -0.04588414       0.01271932
Cu       9.18345177       0.00283744       1.81322676      -0.00675466      -0.02055693      -0.03280282
Cu       0.00300251       3.67215134      10.85296649      -0.01778931       0.00308721       0.02201267
Cu       1.83397539       5.50820789      10.85285358       0.00468583       0.02855846       0.02901273
Cu       0.00314907       5.50914180       1.80331795      -0.02845891       0.00864695       0.02331513
Cu       1.82917602       3.67173458       1.80993750       0.03438462      -0.01147420       0.00153023
Cu       3.65972608       3.66735814       0.00160364       0.07818314       0.04585152       0.00051862
Cu       5.51462802       5.50976319      10.85320577      -0.04933669      -0.01302402       0.02505301
Cu       3.67081686       5.51013676       1.81295599       0.00747895      -0.00651577      -0.06046855
Cu       5.51530682       3.67743303       1.80463878      -0.04017385      -0.01813462      -0.00115611
Cu       7.34525069       3.66939148      10.85444072       0.01477277       0.04325596       0.00199208
Cu       9.18122228       5.50992033      10.85371408       0.00808841      -0.00926092       0.02364166
Cu       7.34430565       5.51048542       1.81840063       0.02223062      -0.00881562      -0.07108326
Cu       9.18127980       3.66963953       1.81096520       0.02555765       0.02266942      -0.02166367
Cu       0.00181801       7.35183479      10.85573582      -0.03061447      -0.04100115       0.01929243
Cu       1.83347312       9.17622037      10.85362017       0.01054284       0.06746728       0.03554266
Cu      11.01522830       9.17789987       1.81622983       0.02716469       0.05620905      -0.03220553
Cu       1.83499713       7.34966426       1.80944808       0.00509446      -0.01681566       0.00925783
Cu       3.66975887       7.35034715      10.85195399       0.02293871      -0.03181917       0.03645044
Cu       5.51123354       9.18537094      10.85267303       0.00087070      -0.00795376       0.01140199
Cu       3.67248005       9.18128575       1.80579524       0.01257201       0.01760604       0.03716530
Cu       5.51009224       7.34147747       1.80718316      -0.01469461       0.03375186      -0.01588754
Cu       7.34396294       7.34231287      10.84664561       0.01432628       0.01854159       0.06713513
Cu       9.18330631       9.19099501       0.00418233      -0.00529910      -0.02881710      -0.01949808
Cu       7.34463778       9.18230782       1.80384537       0.01879099      -0.01609307       0.01196772
Cu       9.18262530       7.34533025       1.81369110      -0.00802440       0.00104937      -0.03158858
Cu      11.01387587       0.00472917       3.61924445       0.05066312      -0.03686706       0.01578091
Cu       1.83911008       1.82973152       3.61584337      -0.00829969       0.03811069       0.02609390
Cu       0.00021224       1.84020521       5.42805611       0.01667327      -0.03889242      -0.00152306
Cu       1.83935516      11.01664664       5.43319524      -0.03576986       0.01871320      -0.01965946
Cu       3.67433708       0.00299755       3.62774307       0.00567802      -0.02775887      -0.04199390
Cu       5.50503711       1.83468494       3.62397200       0.03327323       0.00707728      -0.02120071
Cu       3.66822043       1.83498908       5.43732469       0.03968824       0.00092527      -0.03304833
Cu       5.51493447       0.00312913       5.42424693      -0.04160433      -0.00592427       0.05582637
Cu       7.34502281      11.01187262       3.61861530      -0.00015834       0.06234977      -0.00362738
Cu       9.18618562       1.82899210       3.62504811      -0.03409396       0.04652973      -0.03129994
Cu       7.34448571       1.83584233       5.42590290       0.00333612       0.00179961       0.02406999
Cu       9.18167805       0.00484940       5.42233832       0.02059590      -0.03910615       0.06972384
Cu      11.01786375       3.66943291       3.61658542       0.01617130       0.01198925       0.03796847
Cu       1.83786487       5.50218733       3.61597115      -0.02327040       0.04169549       0.04778246
Cu      11.01536748       5.50276432       5.42458262       0.02632540       0.04506903       0.02221376
Cu       1.84274379       3.67032682       5.43665679      -0.02655341       0.02487867      -0.07356504
Cu       3.67852320       3.66719626       3.61449225      -0.03064370       0.01251416       0.01609638
Cu       5.50572859       5.50992320       3.61648001       0.03352633      -0.01199988       0.01616707
Cu       3.68151623       5.50704400       5.41953566      -0.03455640       0.00843830       0.06059141
Cu       5.51190408       3.67763271       5.42661901       0.00557656      -0.00680929       0.00868129
Cu       7.35218323       3.66612527       3.61255965      -0.03419709       0.04621933       0.05477917
Cu       9.18744240       5.50787179       3.61816106      -0.01045430       0.01909343       0.02655882
Cu       7.35010108       5.51534859       5.43609723      -0.01807111      -0.01997944      -0.06810995
Cu       9.17947766       3.67142206       5.42988709       0.02713266       0.01748611      -0.00545654
Cu       0.00061963       7.35240836       3.61881116       0.00274667      -0.05631176       0.03718740
Cu       1.84003925       9.18588093       3.62910624      -0.01901172       0.01146119      -0.08133873
Cu       0.00326941       9.18244755       5.42764095      -0.02786041       0.02636691       0.02507982
Cu       1.84316188       7.35327517       5.42970003      -0.05252107      -0.08093543      -0.00828532
Cu       3.66904822       7.34792934       3.61816269       0.02882905      -0.01055767      -0.02118295
Cu       5.51652262       9.18689561       3.62565956      -0.05524514      -0.02798804      -0.05913410
Cu       3.67334112       9.17466452       5.42058116       0.04205700       0.05265838       0.05318893
Cu       5.51599114       7.34677525       5.42218958      -0.03357489      -0.03583781       0.02827148
Cu       7.34404967       7.34486997       3.61507960       0.02424588       0.01494780       0.01762880
Cu       9.17964483       9.18633383       3.62890745      -0.00523317      -0.02613188      -0.05074807
Cu       7.33730479       9.18597746       5.43013636       0.05071114      -0.00728991       0.00125728
Cu       9.17666678       7.35474132       5.43360649       0.02398779      -0.04253397      -0.02533990
Cu      11.01851259      11.01324742       7.24320255      -0.00243501       0.01774435      -0.05238390
Cu       1.82832101       1.83767478       7.23244833       0.03311335      -0.03801319       0.04863457
Cu      11.01808304       1.83843744       9.04698365       0.02484932      -0.01354114       0.01688098
Cu       1.83745295       0.00200458       9.04785425       0.00190876      -0.01381389       0.00659549
Cu       3.67599971      11.01429616       7.23951268       0.01593839       0.03520592      -0.02486061
Cu       5.51363394       1.84135643       7.23929576      -0.01133166      -0.02636978      -0.01771908
Cu       3.66557660       1.84280341       9.04622922       0.04496275      -0.04358051      -0.00388983
Cu       5.51325387       0.00182529       9.04544395      -0.01741671       0.00854177       0.00264374
Cu       7.34795325      11.01514059       7.23531298       0.00144897       0.04278950       0.00891268
Cu       9.18929568       1.83659287       7.23403461      -0.04462247      -0.00679034       0.01610208
Cu       7.34564519       1.83838664       9.04888639       0.01571871      -0.01067271      -0.03460298
Cu       9.19029593       0.00056575       9.04719937      -0.05153915      -0.00251601       0.00459495
Cu       0.00811516       3.66869394       7.24135050      -0.05806576       0.05141667      -0.03208341
Cu       1.83808559       5.51090152       7.23598805      -0.00495767       0.01859422      -0.02400196
Cu       0.00091540       5.51108797       9.05107956      -0.00770738       0.01096795      -0.01941703
Cu       1.83856626       3.68131998       9.04351558      -0.01437722      -0.04404689       0.00812122
Cu       3.67123936       3.66378118       7.23952147       0.03115376       0.07736560      -0.00137589
Cu       5.51494748       5.51071760       7.24363171      -0.06458353      -0.01343748      -0.06343699
Cu       3.67113875       5.51451264       9.05249082       0.01295387      -0.03751231      -0.01911687
Cu       5.51238211       3.67631179       9.04747068      -0.03522206      -0.01579327       0.02496415
Cu       7.35018086       3.68001437       7.23538409      -0.01112015      -0.05454347       0.01679960
Cu       9.18197867       5.51226387       7.24285003       0.03272504      -0.00691465      -0.02882871
Cu       7.34237226       5.51173185       9.04143631       0.03966410      -0.02739126       0.04877182
Cu       9.18657571       3.66939291       9.04540932      -0.01889910       0.02453909       0.00113918
Cu      11.01494036       7.34604488       7.23645663       0.03450934      -0.00577355      -0.01657067
Cu       1.84105879       9.18636017       7.23420973      -0.02210765      -0.02288640       0.03098642
Cu       0.00430470       9.18289054       9.05386126      -0.03194616       0.01156306      -0.03506055
Cu       1.83307299       7.35448291       9.04634994       0.01362893      -0.04588159      -0.02584553
Cu       3.67235663       7.34568982       7.23545987       0.01286696      -0.00785336       0.00186213
Cu       5.51253749       9.17828787       7.23608978      -0.04622120       0.03664241      -0.01136779
Cu       3.67606230       9.18318630       9.04772006      -0.01065586       0.00311462      -0.01295129
Cu       5.50474035       7.34118457       9.04524169       0.00831035       0.02860321       0.03465192
Cu       7.33680340       7.35080931       7.24220829       0.05268446      -0.01989149      -0.01128730
Cu       9.17818561       9.17919269       7.24255853       0.02851140       0.03449651      -0.02400893
Cu       7.34399115       9.17862717       9.04410380       0.00883775       0.04070632       0.03589699
Cu       9.18317220       7.34957104       9.05039157       0.00690477      -0.01028877      -0.00237341
108
Lattice="11.0196 0.0 0.0 0.0 11.0196 0.0 0.0 0.0 10.8567" Properties=species:S:1:pos:R:3:forces:R:3 energy=-405.04604986 stress="0.025372787177297452 2.9934533669610268e-05 -7.455245473520768e-06 2.9934533669610268e-05 0.025321921574253448 9.894034024841015e-06 -7.455245473520768e-06 9.894034024841015e-06 0.023022061370226683" free_energy=-405.05477932 pbc="T T T"
Cu      11.01644344       0.00969163      10.84818444       0.03195921      -0.04766178       0.08744314
Cu       1.84255679       1.82872863      10.85332335      -0.07107800       0.03222497       0.01648617
Cu      11.01487777       1.83418906       1.81636825       0.02590381       0.00466957      -0.08071282
Cu       1.83606162       0.00567047       1.80289704      -0.01663383      -0.09244261       0.02843496
Cu       3.67527661      11.01525222       0.00458229       0.00794887       0.01199199      -0.04867248
Cu       5.50530499       1.83379489       0.00670032      -0.01599125       0.01368002      -0.05417784
Cu       3.67692415       1.83978558       1.81075089       0.00068294      -0.03971729      -0.00222856
Cu       5.51433952      11.01230227       1.80767323      -0.02956409       0.03286185       0.02755898
Cu       7.34496749       0.01336622      10.85322358       0.01750916      -0.06180645       0.00478888
Cu       9.17969508       1.83917609      10.85584894       0.03463259      -0.01338048       0.01015094
Cu       7.34917973       1.84604009       1.81067076      -0.02989083      -0.08790876       0.02291885
Cu       9.18390622       0.00567179       1.81699501      -0.02261858      -0.04159071      -0.05212690
Cu       0.00600216       3.67110690      10.84923634      -0.03644198      -0.00883214       0.03884688
Cu       1.83134787       5.50662007      10.84901161       0.02470463       0.06298727       0.05994036
Cu       0.00629384       5.50848503       1.79718587      -0.04960660       0.02015070       0.05227377
Cu       1.82175344       3.67027117       1.81042171       0.06229968      -0.01670212       0.00197757
Cu       3.64626762       3.66152690       0.00320739       0.15569808       0.09392156       0.00256204
Cu       5.51944865       5.50972441      10.84971534      -0.08742235      -0.02379560       0.04634854
Cu       3.66843861       5.51047253       1.81644924       0.00954553      -0.01163819      -0.10906805
Cu       5.52080759       3.68166687       1.79982383      -0.08440611      -0.03977452       0.01620702
Cu       7.34409992       3.66559313      10.85218188       0.03563779       0.07388001       0.00966271
Cu       9.17944945       5.51003924      10.85073185      -0.00094496      -0.01811749       0.04598902
Cu       7.34221094       5.51116952       1.82733688       0.05146541      -0.01637058      -0.13012901
Cu       9.17956714       3.66608604       1.81247341       0.04665189       0.04461242      -0.04440503
Cu       0.00363129       7.35725963      10.85477446      -0.06286873      -0.06768101       0.03998607
Cu       1.83034421       9.16945456      10.85054566       0.02514651       0.13336308       0.07155755
Cu      11.01086080       9.17281201       1.82300115       0.05177803       0.10762385      -0.04986870
Cu       1.83339146       7.35292232       1.80944396       0.01336433      -0.03629596       0.02215849
Cu       3.66632483       7.35428577      10.84721342       0.03554742      -0.05714101       0.07230502
Cu       5.51266708       9.18774434      10.84864780      -0.00072372      -0.02749518       0.02638910
Cu       3.67176565       9.17957794       1.80214250       0.01842803       0.03194982       0.07155377
Cu       5.51038228       7.33655634       1.80491020      -0.02957905       0.07459792      -0.01891306
Cu       7.34152430       7.33822504      10.83660143       0.03603715       0.03439780       0.12349618
Cu       9.18361541       9.19898940       0.00836172      -0.02126607      -0.06575246      -0.03389000
Cu       7.34287465       9.18161689       1.79823897       0.02851785      -0.02327065       0.02444491
Cu       9.18225294       7.34425706       1.81792369      -0.01515012       0.01018508      -0.05960001
Cu      11.00815945       0.00945272       3.61959490       0.11036420      -0.08164165       0.02103241
Cu       1.84161517       1.82286521       3.61279416      -0.01942366       0.06841872       0.05431083
Cu       0.00042701       1.84380079       5.42776189       0.03290349      -0.06198732      -0.00420380
Cu       1.84210124      11.01369614       5.43803743      -0.06183585       0.03794306      -0.03320767
Cu       3.67547860       0.00599092       3.63658325       0.00794165      -0.05397276      -0.10590793
Cu       5.50027918       1.83276731       3.62904446       0.06722634       0.02178559      -0.06223567
Cu       3.66325059       1.83337460       5.44629428       0.07336506      -0.00176184      -0.06512190
Cu       5.52006266       0.00625726       5.42015243      -0.08509574      -0.01508014       0.11000268
Cu       7.34364183      11.00415471       3.61833357       0.00985999       0.11644529      -0.03068395
Cu       9.18936984       1.82138759       3.63119518      -0.06325332       0.09111002      -0.06240228
Cu       7.34256830       1.83508132       5.42345938       0.00826367       0.01119300       0.04055214
Cu       9.18036286       0.00969284       5.41633717       0.03017575      -0.07872330       0.13765204
Cu      11.01612982       3.66567126       3.61428011       0.02900667       0.01955194       0.05762973
Cu       1.83912242       5.49458094       3.61305309      -0.03615999       0.07146924       0.07601991
Cu      11.01113904       5.49573557       5.42081860       0.05004557       0.08072999       0.04550547
Cu       1.84887995       3.66746107       5.44495228      -0.04540220       0.04604402      -0.15259582
Cu       3.68384534       3.66119808       3.61009051      -0.06088478       0.01814648       0.03451379
Cu       5.50166214       5.51004452       3.61406613       0.07703640      -0.02208996       0.03671794
Cu       3.68983096       5.50428932       5.41073055      -0.07208828       0.01994266       0.11103157
Cu       5.51400905       3.68206810       5.42488921       0.00767081      -0.03724294       0.01776269
Cu       7.35795761       3.65906127       3.60623117      -0.06375435       0.08116333       0.11498649
Cu       9.19188683       5.50594656       3.61742986      -0.02677053       0.04146107       0.04391469
Cu       7.35379573       5.52089420       5.44383415      -0.02418534      -0.04187870      -0.12536028