108
Lattice="10.7481 0.0 0.0 0.0 10.7481 0.0 0.0 0.0 10.8567" Properties=species:S:1:pos:R:3:forces:R:3 energy=-404.75440853 stress="-0.020931817737581605 1.0385871185469742e-08 2.1408376301779578e-08 1.0385871185469742e-08 -0.020931757912716634 -1.8992912270062756e-08 2.1408376301779578e-08 -1.8992912270062756e-08 -0.017137579991830073" free_energy=-404.76440108 pbc="T T T"
Cu       0.00000000       0.00000000       0.00000000      -0.00003595      -0.00003339       0.00000086
Cu       1.79135358       1.79135358       0.00000000       0.00602489       0.00602268       0.00000963
Cu       0.00000000       1.79135358       1.80945362      -0.00000189      -0.00151693      -0.00105314
Cu       1.79135358       0.00000000       1.80945362      -0.00152032      -0.00003750      -0.00105330
Cu       3.58269642       0.00000000       0.00000000      -0.00714714      -0.00001592      -0.00000625
Cu       5.37405000       1.79135358       0.00000000       0.00001488       0.00714996      -0.00001578
Cu       3.58269642       1.79135358       1.80945362      -0.00129727       0.00130868      -0.00500710
Cu       5.37405000       0.00000000       1.80945362      -0.00000326      -0.00002452       0.00590925
Cu       7.16540358       0.00000000       0.00000000       0.00717831      -0.00001804      -0.00002165
Cu       8.95674642       1.79135358       0.00000000      -0.00603970       0.00601734      -0.00002886
Cu       7.16540358       1.79135358       1.80945362       0.00130262       0.00131360      -0.00500501
Cu       8.95674642       0.00000000       1.80945362       0.00152477      -0.00003902      -0.00107194
Cu       0.00000000       3.58269642       0.00000000       0.00000701      -0.00715412      -0.00001294
Cu       1.79135358       5.37405000       0.00000000       0.00714254      -0.00000372       0.00002243
Cu       0.00000000       5.37405000       1.80945362      -0.00000351       0.00003300       0.00592837
Cu       1.79135358       3.58269642       1.80945362       0.00129655      -0.00130896      -0.00500497
Cu       3.58269642       3.58269642       0.00000000      -0.00601773      -0.00602481       0.00000546
Cu       5.37405000       5.37405000       0.00000000       0.00002787       0.00001395      -0.00001219
Cu       3.58269642       5.37405000       1.80945362       0.00152712       0.00001591      -0.00103020
Cu       5.37405000       3.58269642       1.80945362       0.00001565       0.00152773      -0.00103985
Cu       7.16540358       3.58269642       0.00000000       0.00601273      -0.00605003      -0.00002839
Cu       8.95674642       5.37405000       0.00000000      -0.00716864       0.00003883      -0.00001962
Cu       7.16540358       5.37405000       1.80945362      -0.00152661       0.00003425      -0.00104824
Cu       8.95674642       3.58269642       1.80945362      -0.00131145      -0.00131142      -0.00499820
Cu       0.00000000       7.16540358       0.00000000      -0.00003453       0.00718735       0.00002592
Cu       1.79135358       8.95674642       0.00000000       0.00603150      -0.00601937       0.00003044
Cu       0.00000000       8.95674642       1.80945362      -0.00002216       0.00148690      -0.00105191
Cu       1.79135358       7.16540358       1.80945362       0.00131201       0.00134669      -0.00498979
Cu       3.58269642       7.16540358       0.00000000      -0.00602526       0.00604370       0.00000930
Cu       5.37405000       8.95674642       0.00000000       0.00002107      -0.00716510      -0.00000952
Cu       3.58269642       8.95674642       1.80945362      -0.00132199      -0.00132775      -0.00499160
Cu       5.37405000       7.16540358       1.80945362       0.00001051      -0.00150669      -0.00103507
Cu       7.16540358       7.16540358       0.00000000       0.00605819       0.00607385       0.00000167
Cu       8.95674642       8.95674642       0.00000000      -0.00605272      -0.00605313       0.00001743
Cu       7.16540358       8.95674642       1.80945362       0.00134256      -0.00134846      -0.00502223
Cu       8.95674642       7.16540358       1.80945362      -0.00132040       0.00134986      -0.00500375
Cu       0.00000000       0.00000000       3.61889638      -0.00001687      -0.00003044      -0.00592655
Cu       1.79135358       1.79135358       3.61889638       0.00131326       0.00131794       0.00498911
Cu       0.00000000       1.79135358       5.42835000       0.00000066       0.00714675       0.00000878
Cu       1.79135358       0.00000000       5.42835000       0.00718060      -0.00001932       0.00001209
Cu       3.58269642       0.00000000       3.61889638       0.00151237      -0.00001489       0.00103872
Cu       5.37405000       1.79135358       3.61889638      -0.00001631      -0.00150251       0.00102729
Cu       3.58269642       1.79135358       5.42835000      -0.00602510       0.00604163       0.00003825
Cu       5.37405000       0.00000000       5.42835000      -0.00001729      -0.00000519       0.00002617
Cu       7.16540358       0.00000000       3.61889638      -0.00149297      -0.00003392       0.00102135
Cu       8.95674642       1.79135358       3.61889638      -0.00129876       0.00128942       0.00498412
Cu       7.16540358       1.79135358       5.42835000       0.00602130       0.00603021       0.00003254
Cu       8.95674642       0.00000000       5.42835000      -0.00716537      -0.00002495       0.00001264
Cu       0.00000000       3.58269642       3.61889638       0.00001201       0.00151237       0.00103019
Cu       1.79135358       5.37405000       3.61889638      -0.00150217       0.00001855       0.00102723
Cu       0.00000000       5.37405000       5.42835000       0.00000478       0.00002401      -0.00002068
Cu       1.79135358       3.58269642       5.42835000       0.00605921      -0.00603566       0.00002443
Cu       3.58269642       3.58269642       3.61889638      -0.00129001      -0.00130096       0.00499844
Cu       5.37405000       5.37405000       3.61889638      -0.00000878       0.00001944      -0.00590105
Cu       3.58269642       5.37405000       5.42835000      -0.00713340      -0.00000084      -0.00000236
Cu       5.37405000       3.58269642       5.42835000      -0.00000165      -0.00713272       0.00002614
Cu       7.16540358       3.58269642       3.61889638       0.00127813      -0.00128122       0.00499677
Cu       8.95674642       5.37405000       3.61889638       0.00150828       0.00005043       0.00103234
Cu       7.16540358       5.37405000       5.42835000       0.00712703       0.00001283      -0.00000546
Cu       8.95674642       3.58269642       5.42835000      -0.00605940      -0.00601694      -0.00000668
Cu       0.00000000       7.16540358       3.61889638      -0.00002524      -0.00148125       0.00100654
Cu       1.79135358       8.95674642       3.61889638       0.00131315      -0.00133882       0.00497813
Cu       0.00000000       8.95674642       5.42835000      -0.00001540      -0.00717039      -0.00000765
Cu       1.79135358       7.16540358       5.42835000       0.00604872       0.00605462      -0.00001405
Cu       3.58269642       7.16540358       3.61889638      -0.00129734       0.00131464       0.00499854
Cu       5.37405000       8.95674642       3.61889638      -0.00000475       0.00148799       0.00103375
Cu       3.58269642       8.95674642       5.42835000      -0.00604380      -0.00604220      -0.00001777
Cu       5.37405000       7.16540358       5.42835000       0.00000421       0.00713696      -0.00002294
Cu       7.16540358       7.16540358       3.61889638       0.00132354       0.00131294       0.00500160
Cu       8.95674642       8.95674642       3.61889638      -0.00130713      -0.00133375       0.00497703
Cu       7.16540358       8.95674642       5.42835000       0.00605837      -0.00604429       0.00000571
Cu       8.95674642       7.16540358       5.42835000      -0.00604914       0.00604701      -0.00001686
Cu       0.00000000       0.00000000       7.23780362      -0.00001247      -0.00000384       0.00592655
Cu       1.79135358       1.79135358       7.23780362       0.00132578       0.00130326      -0.00499708
Cu       0.00000000       1.79135358       9.04724638      -0.00000624      -0.00153692       0.00104418
Cu       1.79135358       0.00000000       9.04724638      -0.00150962      -0.00001390       0.00104028
Cu       3.58269642       0.00000000       7.23780362       0.00151250       0.00000465      -0.00103237
Cu       5.37405000       1.79135358       7.23780362       0.00000367      -0.00151696      -0.00101284
Cu       3.58269642       1.79135358       9.04724638      -0.00128427       0.00129172       0.00496934
Cu       5.37405000       0.00000000       9.04724638       0.00002012       0.00001458      -0.00593561
Cu       7.16540358       0.00000000       7.23780362      -0.00150157      -0.00000221      -0.00099809
Cu       8.95674642       1.79135358       7.23780362      -0.00133397       0.00128728      -0.00495785
Cu       7.16540358       1.79135358       9.04724638       0.00129724       0.00129951       0.00498023
Cu       8.95674642       0.00000000       9.04724638       0.00149004      -0.00001236       0.00105963
Cu       0.00000000       3.58269642       7.23780362       0.00001637       0.00150486      -0.00101781
Cu       1.79135358       5.37405000       7.23780362      -0.00150981      -0.00001876      -0.00104795
Cu       0.00000000       5.37405000       9.04724638      -0.00001448      -0.00000074      -0.00591117
Cu       1.79135358       3.58269642       9.04724638       0.00130354      -0.00129626       0.00498238
Cu       3.58269642       3.58269642       7.23780362      -0.00129045      -0.00130120      -0.00500845
Cu       5.37405000       5.37405000       7.23780362       0.00001741      -0.00000844       0.00591478
Cu       3.58269642       5.37405000       9.04724638       0.00155327      -0.00001653       0.00103494
Cu       5.37405000       3.58269642       9.04724638       0.00002139       0.00151301       0.00101424
Cu       7.16540358       3.58269642       7.23780362       0.00127100      -0.00130738      -0.00497008
Cu       8.95674642       5.37405000       7.23780362       0.00149074       0.00001927      -0.00101444
Cu       7.16540358       5.37405000       9.04724638      -0.00154173       0.00001800       0.00105041
Cu       8.95674642       3.58269642       9.04724638      -0.00132838      -0.00132183       0.00500335
Cu       0.00000000       7.16540358       7.23780362      -0.00001534      -0.00150194      -0.00103073
Cu       1.79135358       8.95674642       7.23780362       0.00131911      -0.00128496      -0.00500845
Cu       0.00000000       8.95674642       9.04724638      -0.00004184       0.00153543       0.00106214
Cu       1.79135358       7.16540358       9.04724638       0.00129666       0.00131236       0.00500199
Cu       3.58269642       7.16540358       7.23780362      -0.00127884       0.00129834      -0.00500611
Cu       5.37405000       8.95674642       7.23780362       0.00001558       0.00152255      -0.00102544
Cu       3.58269642       8.95674642       9.04724638      -0.00129081      -0.00127739       0.00500689
Cu       5.37405000       7.16540358       9.04724638       0.00002396      -0.00152443       0.00105772
Cu       7.16540358       7.16540358       7.23780362       0.00129965       0.00130897      -0.00499768
Cu       8.95674642       8.95674642       7.23780362      -0.00133521      -0.00130997      -0.00499155
Cu       7.16540358       8.95674642       9.04724638       0.00133478      -0.00131720       0.00501593
Cu       8.95674642       7.16540358       9.04724638      -0.00132180       0.00133220       0.00502088
108
Lattice="10.7481 0.0 0.0 0.0 10.7481 0.0 0.0 0.0 10.8567" Properties=species:S:1:pos:R:3:forces:R:3 energy=-404.73285284 stress="-0.021250842240476162 6.523076085570104e-06 6.279582331551146e-08 6.523076085570104e-06 -0.021236466047676334 -5.667752157977314e-06 6.279582331551146e-08 -5.667752157977314e-06 -0.017461311697352662" free_energy=-404.74284225 pbc="T T T"
Cu      10.74587009       0.00025699       0.00157520      -0.00334935       0.02991392      -0.03137603
Cu       1.79365937       1.79148869       0.00437188      -0.02132024       0.02920632      -0.02329565
Cu      10.73919294       1.79211734       1.81124921       0.05636393      -0.01328315      -0.02220397
Cu       1.78677478       0.00497583       1.80330243       0.05126639      -0.00733137       0.03648941
Cu       3.57680603       0.00616984      10.85047097       0.05167999      -0.03691768       0.05609179
Cu       5.36659598       1.79104533       0.00735596       0.05156203       0.01772300      -0.04889184
Cu       3.58244287       1.79582028       1.81311732      -0.01889575      -0.02709308      -0.01549055
Cu       5.37525089       0.00799960       1.81053668      -0.02916401      -0.05708643       0.00336589
Cu       7.16322000       0.00019497      10.85617736       0.00351166      -0.00587801      -0.01281220
Cu       8.95180702       1.79560919      10.85388236       0.01959474      -0.03014969      -0.00350424
Cu       7.17696822       1.78655800       1.81038013      -0.06323512       0.04078036      -0.00084221
Cu       8.95532219      10.74747801       1.80636684       0.01308916      -0.03041946       0.01779740
Cu      10.74495962       3.57736461       0.00149345       0.02090896       0.02956548      -0.02097076
Cu       1.79172299       5.36363423       0.00398875      -0.00047745       0.06639683      -0.01397313
Cu       0.00453602       5.37513717       1.80944873      -0.03894692      -0.00042039       0.01152772
Cu       1.78422222       3.57898875       1.81166296       0.05812558       0.01288610      -0.00626175
Cu       3.58241858       3.58595073      10.85222747       0.00680264      -0.01838859       0.04505715
Cu       5.37357751       5.37710042      10.85371452      -0.00887607      -0.02674201       0.02980509
Cu       3.58491149       5.37457354       1.81145190      -0.01065630      -0.03819772      -0.01334770
Cu       5.37790653       3.58142277       1.80860593      -0.01324410       0.02040314      -0.01073550
Cu       7.16214325       3.58139278       0.00393859       0.02445571       0.03083386      -0.02821181
Cu       8.95893043       5.37704120       0.00637364      -0.01589446      -0.04818657      -0.03718081
Cu       7.16732943       5.37856194       1.81298715      -0.02889512      -0.05706827      -0.02941651
Cu       8.96275794       3.58149521       1.80413590      -0.04241302       0.03713371       0.02854269
Cu      10.74770501       7.16690907       0.00183446       0.00846288      -0.01111058       0.03711399
Cu       1.79260197       8.95882908      10.85500158       0.01159022      -0.02451139       0.01284970
Cu       0.00964534       8.95998117       1.80897071      -0.07664113      -0.03728143      -0.02208189
Cu       1.79329254       7.16230018       1.81002642       0.01368132       0.00631228      -0.03260014
Cu       3.58254745       7.16518647       0.00124928      -0.01152237       0.00757805      -0.01875161
Cu       5.37229075       8.95605574      10.84882249       0.00219153       0.00744931       0.05179777
Cu       3.57853271       8.95776781       1.80970452       0.04365284       0.02033777      -0.03096663
Cu       5.37458461       7.16601397       1.81361999      -0.00668731       0.01984335      -0.04502415
Cu       7.16695754       7.15762776      10.85667438      -0.00157712       0.08134957       0.01410535
Cu       8.95940808       8.95824760      10.84796133      -0.03899570      -0.02373579       0.08632444
Cu       7.16261768       8.95818580       1.80453923       0.01258351      -0.00171882       0.01432068
Cu       8.95033722       7.16196258       1.81201363       0.06103749       0.06101559      -0.02113563
Cu       0.00552442       0.00015069       3.61091464      -0.02963225      -0.00632823       0.05340434
Cu       1.79063894       1.79161519       3.62174670       0.00513025       0.02445176      -0.01315816
Cu      10.74784301       1.79252276       5.42570118       0.00518768       0.00169060       0.01698163
Cu       1.79936135       0.00861363       5.42550316      -0.08827303      -0.08310068       0.00709443
Cu       3.57738363      10.74107719       3.62158635       0.03789067       0.07241299      -0.03039401
Cu       5.36983148       1.79703352       3.61812469       0.04266530      -0.06170925       0.01413417
Cu       3.57824133       1.79784920       5.43114213       0.04866386      -0.03785114      -0.03454465
Cu       5.37888213      10.74715653       5.42433650      -0.02884722       0.04397649       0.01222461
Cu       7.16609727       0.00452366       3.62151567       0.02610030      -0.03645520      -0.00881730
Cu       8.96679740       1.79721818       3.61901971      -0.05787907      -0.04070548       0.02696425
Cu       7.17254795       1.79327169       5.43167628      -0.01959840      -0.00646948      -0.04423388
Cu       8.95628812      10.74552862       5.42685699       0.00176026      -0.01315420      -0.02715571
Cu       0.00175205       3.58600887       3.61887944      -0.02455114       0.00143156       0.03096686
Cu       1.78644826       5.37059760       3.62045888       0.06264596       0.00001345      -0.02115811
Cu       0.00650368       5.37775068       5.42849038      -0.10456469      -0.03402377      -0.00321960
Cu       1.79200277       3.58613097       5.43800237      -0.02879733      -0.03894132      -0.07313252
Cu       3.58919698       3.57945350       3.62022752      -0.06624984       0.04041844       0.00032905
Cu       5.37381569       5.37360223       3.61805162      -0.00300762      -0.02129287      -0.00018008
Cu       3.57730410       5.37163372       5.42563485       0.04287952       0.01266790       0.02181413
Cu       5.37989815       3.57728916       5.42440370      -0.02106336       0.03797398       0.02897610
Cu       7.16457727       3.58350209       3.61628372       0.02410192      -0.02462234       0.00074440
Cu       8.94985044       5.37316909       3.62002298       0.07465242       0.00571810       0.00483072
Cu       7.16377675       5.37601035       5.42535279       0.00944392      -0.01446317       0.04407212
Cu       8.95105541       3.58192546       5.43090762       0.03793800       0.02100608      -0.01113099
Cu       0.00741178       7.16640617       3.61083050      -0.07497793      -0.02051756       0.05533541
Cu       1.79316174       8.95546718       3.61607733       0.00017486       0.00123838       0.04186573
Cu       0.00006245       8.95565054       5.42720798       0.03051175      -0.00369540       0.00742301
Cu       1.78778360       7.15798385       5.42808314       0.04994991       0.07488991      -0.00220850
Cu       3.58660529       7.16104716       3.61544569      -0.03451694       0.03953791       0.04727258
Cu       5.37418338       8.96162659       3.62086427      -0.00680950      -0.03137277      -0.01571137
Cu       3.57924520       8.96024643       5.43334690       0.01247620      -0.06634528      -0.05407872
Cu       5.37067907       7.15744107       5.42996721      -0.00742326       0.04420170      -0.00832812
Cu       7.16037229       7.16276664       3.61832521       0.02218408       0.04817158       0.01655236
Cu       8.96501429       8.95350651       3.61777738      -0.06313459       0.01621299       0.00627499
Cu       7.16088841       8.94633194       5.43092477       0.05945149       0.05922998      -0.04846731
Cu       8.95060753       7.16446065       5.43284489       0.05525823      -0.00607542      -0.03923850
Cu      10.74346929      10.74576401       7.23574367       0.05708412      -0.01308061       0.03169431
Cu       1.79260799       1.78298780       7.23504471      -0.03284551       0.04711180       0.01990729
Cu       0.00630752       1.79652546       9.04797432      -0.04052749      -0.06155730      -0.00344074
Cu       1.79399600       0.00043691       9.05308153      -0.05886832      -0.00263653      -0.05329243
Cu       3.57826637      10.74545027       7.23336041       0.06122359       0.03928084       0.02953852
Cu       5.37829743       1.78945987       7.23576896      -0.04563974      -0.00114561       0.00772531
Cu       3.57893877       1.79534844       9.04494074       0.03570317      -0.01168985      -0.01133368
Cu       5.37374680       0.00217413       9.04605714       0.00740678       0.00238648      -0.02070954
Cu       7.16846991       0.00274904       7.23796484      -0.01832802      -0.02430199      -0.01795662
Cu       8.96091958       1.78407357       7.23499770      -0.01456722       0.05115496       0.01327453
Cu       7.16520442       1.79234886       9.04849892      -0.02002164       0.00408945       0.00734760
Cu       8.95031174       0.00246110       9.04640966       0.06208528       0.00626571       0.01328105
Cu      10.74400282       3.58206991       7.24087531       0.02686707      -0.00317010      -0.02541783
Cu       1.78429864       5.37447917       7.23631343       0.06414276       0.01295754       0.04932227
Cu      10.74559021       5.37511180       9.04859250       0.01623614      -0.03440628       0.01317549
Cu       1.79156994       3.58205336       9.04854984      -0.00463866       0.00447622      -0.02804815
Cu       3.58197844       3.58153186       7.22810652       0.02190268       0.01812503       0.06054646
Cu       5.37637772       5.37303430       7.23867031      -0.02495133       0.00973676      -0.00035401
Cu       3.57665706       5.37477775       9.04316665       0.03274224       0.00995877       0.00224263
Cu       5.37530291       3.58273060       9.04748165      -0.02178878       0.00229536       0.00389228
Cu       7.16217292       3.58415461       7.24278250       0.01528195      -0.02367432      -0.02626564
Cu       8.94876638       5.36554653       7.24544207       0.04553312       0.05941413      -0.06732751
Cu       7.16418851       5.38184904       9.04599601       0.01770645      -0.08195371       0.02907078
Cu       8.95781843       3.57976079       9.04458399      -0.02763829       0.01695444       0.04995137
Cu      10.74683280       7.16031242       7.23732310      -0.00979480       0.04724521       0.01159330
Cu       1.79670635       8.95548255       7.23937100      -0.08293085       0.00008155      -0.00758988
Cu      10.74549617       8.95376231       9.05503422       0.02240702       0.04180071      -0.07614261
Cu       1.78348737       7.16468507       9.05708071       0.05377479       0.00269533      -0.04002616
Cu       3.58598351       7.17138318       7.24016528      -0.02225396      -0.05453408       0.00195532
Cu       5.37928701       8.96033886       7.22693085      -0.03778085      -0.01615198       0.08248339
Cu       3.58465160       8.96461123       9.04292042       0.00496440      -0.07044076       0.02733006
Cu       5.38278165       7.16399096       9.05296385      -0.08136474       0.03591727      -0.06097991
Cu       7.16972400       7.17299163       7.24166546      -0.03037553      -0.06980594      -0.02863242
Cu       8.95748245       8.95712787       7.23978084       0.02648765      -0.00590748      -0.01579748
Cu       7.17165500       8.95511378       9.04060501      -0.04663747       0.01116173       0.06007113
Cu       8.96067130       7.15840635       9.05178687      -0.01072188       0.03386557      -0.01382745
108
Lattice="10.7481 0.0 0.0 0.0 10.7481 0.0 0.0 0.0 10.8567" Properties=species:S:1:pos:R:3:forces:R:3 energy=-404.668135 stress="-0.021536656085251498 1.5978612886772192e-05 2.6484814126679838e-05 1.5978612886772192e-05 -0.021480830879191917 -3.564082714643991e-05 2.6484814126679838e-05 -3.564082714643991e-05 -0.017749555143177883" free_energy=-404.67811311 pbc="T T T"
Cu      10.74363965       0.00051849       0.00314562      -0.01207993       0.05963267      -0.06085119
Cu       1.79596183       1.79162809       0.00874029      -0.04425716       0.05790298      -0.03544383
Cu      10.73029448       1.79287906       1.81304154       0.11148622      -0.01824202      -0.05213582
Cu       1.78220373       0.00995059       1.79715667       0.10957910      -0.00482202       0.07355211
Cu       3.57092349       0.01233409      10.84425062       0.11676752      -0.07435280       0.12045181
Cu       5.35914969       1.79073987       0.01470453       0.10251819       0.02408408      -0.09893360
Cu       3.58218653       1.80028289       1.81677863      -0.04166736      -0.04857949      -0.01755953
Cu       5.37644736       0.01599038       1.81162029      -0.05558819      -0.11426687      -0.00144254
Cu       7.16103695       0.00038919      10.85565276      -0.00253400      -0.01128607      -0.02083442
Cu       8.94687063       1.79986027      10.85106429       0.05173167      -0.07244150      -0.01224193
Cu       7.18852328       1.78176853       1.81130653      -0.11982845       0.07931043       0.01685727
Cu       8.95389978      10.74685129       1.80328289       0.02651785      -0.06355599       0.03894520
Cu      10.74182246       3.57203720       0.00298386       0.04173924       0.06617818      -0.04343854
Cu       1.79209241       5.35322857       0.00797555      -0.01136917       0.12140332      -0.03620071
Cu       0.00906613       5.37622434       1.80944569      -0.08598347      -0.00461446       0.01126892
Cu       1.77709967       3.57528292       1.81387143       0.11346256       0.02182835      -0.00827788
Cu       3.58214182       3.58920213      10.84776190       0.01827075      -0.02988706       0.09132380
Cu       5.37310363       5.38014686      10.85073348      -0.01705601      -0.05454472       0.05393540
Cu       3.58712485       5.37509138       1.81344812      -0.03746200      -0.07925904      -0.02602209
Cu       5.38176101       3.58015234       1.80775661      -0.02440056       0.03559253      -0.01509870
Cu       7.15888669       3.58009376       0.00787284       0.03670624       0.05794599      -0.05948672
Cu       8.96111208       5.38002508       0.01274175      -0.02616320      -0.10111766      -0.06748623
Cu       7.16925087       5.38306529       1.81651634      -0.05327769      -0.10938913      -0.06421731
Cu       8.96876290       3.58029970       1.79882252      -0.09548141       0.08296662       0.07617782
Cu      10.74731130       7.16841284       0.00367456       0.01347093      -0.02856935       0.07559755
Cu       1.79385209       8.96090808      10.85330511       0.02175259      -0.03763114       0.02756927
Cu       0.01927897       8.96321022       1.80848444      -0.14952784      -0.07674710      -0.05250490
Cu       1.79523354       7.15919763       1.81059433       0.02312517       0.01070235      -0.06308708
Cu       3.58239665       7.16497054       0.00249585      -0.01597522       0.00995973      -0.04252563
Cu       5.37053182       8.95536615      10.84095301       0.01111003       0.02914370       0.10476995
Cu       3.57437556       8.95879221       1.80995064       0.08959310       0.03301947      -0.05805918
Cu       5.37511815       7.16662725       1.81777951      -0.01530132       0.04007223      -0.09171434
Cu       7.16851118       7.14986430      10.85665093      -0.00057933       0.15433278       0.02941191
Cu       8.96206372       8.95974524      10.83923591      -0.07110078      -0.04139474       0.15910064
Cu       7.15983370       8.95962497       1.79962700       0.02474257      -0.00106021       0.03506237
Cu       8.94393726       7.15853082       1.81457038       0.11550568       0.12240553      -0.03153961
Cu       0.01104432       0.00030052       3.60294116      -0.06457538      -0.01293500       0.11880307
Cu       1.78992505       1.79188045       3.62459517       0.00714137       0.04802854      -0.03625704
Cu      10.74758689       1.79369215       5.42305508       0.01156106       0.00241275       0.03773054
Cu       1.80735578       0.01721459       5.42265751      -0.18111325      -0.14842007       0.02019129
Cu       3.57207654      10.73406545       3.62427164       0.08059714       0.12862907      -0.06214177
Cu       5.36561951       1.80270411       3.61735516       0.08184437      -0.12850135       0.02334047
Cu       3.57379366       1.80433911       5.43392915       0.11114825      -0.08884288      -0.06503098
Cu       5.38370996      10.74621973       5.42032494      -0.05541121       0.08835884       0.02325241
Cu       7.16679492       0.00904184       3.62413354       0.05086763      -0.06021928      -0.01854750
Cu       8.97683956       1.80307664       3.61914706      -0.12255691      -0.07469214       0.03822283
Cu       7.17968920       1.79518893       5.43499582      -0.05405482      -0.02188996      -0.07969948
Cu       8.95583003      10.74295531       5.42535996       0.01044902      -0.02343064      -0.05466545
Cu       0.00350033       3.58932165       3.61886729      -0.04279086       0.00039990       0.06307150
Cu       1.78155250       5.36714521       3.62201812       0.12877357      -0.00369012      -0.04527076
Cu       0.01299155       5.38144620       5.42863021      -0.21814637      -0.07006816      -0.00818770
Cu       1.79264755       3.58955951       5.44764366      -0.06088155      -0.06409147      -0.12564927
Cu       3.59568743       3.57621682       3.62155877      -0.13446180       0.08457264      -0.00536952
Cu       5.37358095       5.37315114       3.61720675      -0.00589836      -0.04307552       0.00549608
Cu       3.57191833       5.36921937       5.42292317       0.08930161       0.02993301       0.04705257
Cu       5.38574307       3.57188759       5.42046185      -0.03722880       0.09125825       0.06564447
Cu       7.16375461       3.58430401       3.61367116       0.04877164      -0.05003569      -0.00494536
Cu       8.94296585       5.37228914       3.62115045       0.15723012       0.01079975       0.01327193
Cu       7.16215121       5.37796843       5.42236231       0.00860894      -0.03283656       0.08137513