128
Lattice="14.68793304 0.0 0.0 0.0 14.68793304 0.0 0.0 0.0 13.43523216" Properties=species:S:1:pos:R:3:forces:R:3 energy=-189.30099879 stress="-0.0008073700072805356 -0.0 0.0 -0.0 -0.0008073700072805356 -0.0 0.0 -0.0 0.0027340714083149854" free_energy=-189.30260511 pbc="T T T"
Mg       0.00000000       0.00000000       0.00000000      -0.00000000      -0.00000000      -0.00000000
Mg       1.83599163       1.83599163       1.67940402       0.00000000      -0.00000000       0.00000000
Mg       3.67198326       0.00000000       0.00000000       0.00000000      -0.00000000      -0.00000000
Mg       5.50797489       1.83599163       1.67940402      -0.00000000      -0.00000000      -0.00000000
Mg       7.34396652       0.00000000       0.00000000      -0.00000000       0.00000000       0.00000000
Mg       9.17995815       1.83599163       1.67940402       0.00000000      -0.00000000       0.00000000
Mg      11.01594978       0.00000000       0.00000000      -0.00000000       0.00000000      -0.00000000
Mg      12.85194141       1.83599163       1.67940402       0.00000000       0.00000000       0.00000000
Mg       0.00000000       3.67198326       0.00000000       0.00000000      -0.00000000      -0.00000000
Mg       1.83599163       5.50797489       1.67940402       0.00000000      -0.00000000       0.00000000
Mg       3.67198326       3.67198326       0.00000000      -0.00000000      -0.00000000      -0.00000000
Mg       5.50797489       5.50797489       1.67940402       0.00000000      -0.00000000       0.00000000
Mg       7.34396652       3.67198326       0.00000000      -0.00000000       0.00000000      -0.00000000
Mg       9.17995815       5.50797489       1.67940402      -0.00000000      -0.00000000      -0.00000000
Mg      11.01594978       3.67198326       0.00000000       0.00000000       0.00000000       0.00000000
Mg      12.85194141       5.50797489       1.67940402      -0.00000000       0.00000000      -0.00000000
Mg       0.00000000       7.34396652       0.00000000       0.00000000      -0.00000000       0.00000000
Mg       1.83599163       9.17995815       1.67940402      -0.00000000      -0.00000000      -0.00000000
Mg       3.67198326       7.34396652       0.00000000       0.00000000       0.00000000       0.00000000
Mg       5.50797489       9.17995815       1.67940402       0.00000000      -0.00000000       0.00000000
Mg       7.34396652       7.34396652       0.00000000      -0.00000000       0.00000000      -0.00000000
Mg       9.17995815       9.17995815       1.67940402      -0.00000000      -0.00000000      -0.00000000
Mg      11.01594978       7.34396652       0.00000000      -0.00000000      -0.00000000       0.00000000
Mg      12.85194141       9.17995815       1.67940402       0.00000000       0.00000000       0.00000000
Mg       0.00000000      11.01594978       0.00000000       0.00000000      -0.00000000       0.00000000
Mg       1.83599163      12.85194141       1.67940402       0.00000000      -0.00000000      -0.00000000
Mg       3.67198326      11.01594978       0.00000000       0.00000000       0.00000000       0.00000000
Mg       5.50797489      12.85194141       1.67940402       0.00000000      -0.00000000       0.00000000
Mg       7.34396652      11.01594978       0.00000000      -0.00000000      -0.00000000       0.00000000
Mg       9.17995815      12.85194141       1.67940402       0.00000000       0.00000000       0.00000000
Mg      11.01594978      11.01594978       0.00000000      -0.00000000       0.00000000      -0.00000000
Mg      12.85194141      12.85194141       1.67940402      -0.00000000       0.00000000       0.00000000
Mg       0.00000000       0.00000000       3.35880804       0.00000000       0.00000000      -0.00000000
Mg       1.83599163       1.83599163       5.03821206       0.00000000      -0.00000000       0.00000000
Mg       3.67198326       0.00000000       3.35880804       0.00000000      -0.00000000      -0.00000000
Mg       5.50797489       1.83599163       5.03821206      -0.00000000       0.00000000      -0.00000000
Mg       7.34396652       0.00000000       3.35880804       0.00000000      -0.00000000       0.00000000
Mg       9.17995815       1.83599163       5.03821206       0.00000000       0.00000000      -0.00000000
Mg      11.01594978       0.00000000       3.35880804       0.00000000      -0.00000000       0.00000000
Mg      12.85194141       1.83599163       5.03821206       0.00000000       0.00000000      -0.00000000
Mg       0.00000000       3.67198326       3.35880804      -0.00000000       0.00000000       0.00000000
Mg       1.83599163       5.50797489       5.03821206       0.00000000       0.00000000      -0.00000000
Mg       3.67198326       3.67198326       3.35880804      -0.00000000       0.00000000       0.00000000
Mg       5.50797489       5.50797489       5.03821206      -0.00000000       0.00000000       0.00000000
Mg       7.34396652       3.67198326       3.35880804      -0.00000000      -0.00000000      -0.00000000
Mg       9.17995815       5.50797489       5.03821206      -0.00000000       0.00000000      -0.00000000
Mg      11.01594978       3.67198326       3.35880804      -0.00000000      -0.00000000      -0.00000000
Mg      12.85194141       5.50797489       5.03821206       0.00000000      -0.00000000      -0.00000000
Mg       0.00000000       7.34396652       3.35880804      -0.00000000       0.00000000       0.00000000
Mg       1.83599163       9.17995815       5.03821206       0.00000000      -0.00000000      -0.00000000
Mg       3.67198326       7.34396652       3.35880804       0.00000000       0.00000000       0.00000000
Mg       5.50797489       9.17995815       5.03821206      -0.00000000      -0.00000000       0.00000000
Mg       7.34396652       7.34396652       3.35880804      -0.00000000      -0.00000000       0.00000000
Mg       9.17995815       9.17995815       5.03821206      -0.00000000      -0.00000000       0.00000000
Mg      11.01594978       7.34396652       3.35880804      -0.00000000       0.00000000      -0.00000000
Mg      12.85194141       9.17995815       5.03821206      -0.00000000      -0.00000000      -0.00000000
Mg       0.00000000      11.01594978       3.35880804       0.00000000       0.00000000      -0.00000000
Mg       1.83599163      12.85194141       5.03821206       0.00000000       0.00000000      -0.00000000
Mg       3.67198326      11.01594978       3.35880804       0.00000000      -0.00000000       0.00000000
Mg       5.50797489      12.85194141       5.03821206       0.00000000      -0.00000000      -0.00000000
Mg       7.34396652      11.01594978       3.35880804      -0.00000000      -0.00000000       0.00000000
Mg       9.17995815      12.85194141       5.03821206      -0.00000000      -0.00000000       0.00000000
Mg      11.01594978      11.01594978       3.35880804       0.00000000      -0.00000000       0.00000000
Mg      12.85194141      12.85194141       5.03821206       0.00000000      -0.00000000       0.00000000
Mg       0.00000000       0.00000000       6.71761608      -0.00000000       0.00000000       0.00000000
Mg       1.83599163       1.83599163       8.39702010      -0.00000000      -0.00000000       0.00000000
Mg       3.67198326       0.00000000       6.71761608       0.00000000       0.00000000      -0.00000000
Mg       5.50797489       1.83599163       8.39702010       0.00000000       0.00000000       0.00000000
Mg       7.34396652       0.00000000       6.71761608      -0.00000000       0.00000000      -0.00000000
Mg       9.17995815       1.83599163       8.39702010      -0.00000000      -0.00000000       0.00000000
Mg      11.01594978       0.00000000       6.71761608      -0.00000000       0.00000000      -0.00000000
Mg      12.85194141       1.83599163       8.39702010       0.00000000      -0.00000000      -0.00000000
Mg       0.00000000       3.67198326       6.71761608      -0.00000000       0.00000000      -0.00000000
Mg       1.83599163       5.50797489       8.39702010       0.00000000       0.00000000      -0.00000000
Mg       3.67198326       3.67198326       6.71761608      -0.00000000      -0.00000000       0.00000000
Mg       5.50797489       5.50797489       8.39702010       0.00000000       0.00000000       0.00000000
Mg       7.34396652       3.67198326       6.71761608      -0.00000000       0.00000000       0.00000000
Mg       9.17995815       5.50797489       8.39702010       0.00000000       0.00000000       0.00000000
Mg      11.01594978       3.67198326       6.71761608      -0.00000000       0.00000000      -0.00000000
Mg      12.85194141       5.50797489       8.39702010       0.00000000       0.00000000      -0.00000000
Mg       0.00000000       7.34396652       6.71761608       0.00000000       0.00000000      -0.00000000
Mg       1.83599163       9.17995815       8.39702010       0.00000000      -0.00000000      -0.00000000
Mg       3.67198326       7.34396652       6.71761608       0.00000000      -0.00000000      -0.00000000
Mg       5.50797489       9.17995815       8.39702010       0.00000000      -0.00000000      -0.00000000
Mg       7.34396652       7.34396652       6.71761608       0.00000000       0.00000000       0.00000000
Mg       9.17995815       9.17995815       8.39702010      -0.00000000       0.00000000       0.00000000
Mg      11.01594978       7.34396652       6.71761608       0.00000000       0.00000000       0.00000000
Mg      12.85194141       9.17995815       8.39702010      -0.00000000      -0.00000000       0.00000000
Mg       0.00000000      11.01594978       6.71761608      -0.00000000      -0.00000000      -0.00000000
Mg       1.83599163      12.85194141       8.39702010       0.00000000      -0.00000000       0.00000000
Mg       3.67198326      11.01594978       6.71761608      -0.00000000      -0.00000000      -0.00000000
Mg       5.50797489      12.85194141       8.39702010       0.00000000      -0.00000000      -0.00000000
Mg       7.34396652      11.01594978       6.71761608       0.00000000      -0.00000000      -0.00000000
Mg       9.17995815      12.85194141       8.39702010       0.00000000       0.00000000      -0.00000000
Mg      11.01594978      11.01594978       6.71761608       0.00000000       0.00000000       0.00000000
Mg      12.85194141      12.85194141       8.39702010       0.00000000      -0.00000000       0.00000000
Mg       0.00000000       0.00000000      10.07642412      -0.00000000       0.00000000      -0.00000000
Mg       1.83599163       1.83599163      11.75582814      -0.00000000       0.00000000      -0.00000000
Mg       3.67198326       0.00000000      10.07642412      -0.00000000       0.00000000       0.00000000
Mg       5.50797489       1.83599163      11.75582814      -0.00000000       0.00000000      -0.00000000
Mg       7.34396652       0.00000000      10.07642412      -0.00000000      -0.00000000      -0.00000000
Mg       9.17995815       1.83599163      11.75582814      -0.00000000       0.00000000       0.00000000
Mg      11.01594978       0.00000000      10.07642412      -0.00000000       0.00000000      -0.00000000
Mg      12.85194141       1.83599163      11.75582814      -0.00000000      -0.00000000       0.00000000
Mg       0.00000000       3.67198326      10.07642412      -0.00000000      -0.00000000      -0.00000000
Mg       1.83599163       5.50797489      11.75582814       0.00000000       0.00000000      -0.00000000
Mg       3.67198326       3.67198326      10.07642412       0.00000000       0.00000000      -0.00000000
Mg       5.50797489       5.50797489      11.75582814       0.00000000       0.00000000      -0.00000000
Mg       7.34396652       3.67198326      10.07642412      -0.00000000       0.00000000      -0.00000000
Mg       9.17995815       5.50797489      11.75582814      -0.00000000       0.00000000       0.00000000
Mg      11.01594978       3.67198326      10.07642412      -0.00000000      -0.00000000       0.00000000
Mg      12.85194141       5.50797489      11.75582814      -0.00000000      -0.00000000       0.00000000
Mg       0.00000000       7.34396652      10.07642412       0.00000000       0.00000000      -0.00000000
Mg       1.83599163       9.17995815      11.75582814      -0.00000000      -0.00000000       0.00000000
Mg       3.67198326       7.34396652      10.07642412       0.00000000       0.00000000      -0.00000000
Mg       5.50797489       9.17995815      11.75582814      -0.00000000       0.00000000      -0.00000000
Mg       7.34396652       7.34396652      10.07642412      -0.00000000       0.00000000      -0.00000000
Mg       9.17995815       9.17995815      11.75582814      -0.00000000      -0.00000000      -0.00000000
Mg      11.01594978       7.34396652      10.07642412       0.00000000      -0.00000000       0.00000000
Mg      12.85194141       9.17995815      11.75582814      -0.00000000      -0.00000000      -0.00000000
Mg       0.00000000      11.01594978      10.07642412       0.00000000       0.00000000       0.00000000
Mg       1.83599163      12.85194141      11.75582814      -0.00000000       0.00000000       0.00000000
Mg       3.67198326      11.01594978      10.07642412       0.00000000      -0.00000000       0.00000000
Mg       5.50797489      12.85194141      11.75582814       0.00000000       0.00000000       0.00000000
Mg       7.34396652      11.01594978      10.07642412       0.00000000      -0.00000000      -0.00000000
Mg       9.17995815      12.85194141      11.75582814       0.00000000      -0.00000000      -0.00000000
Mg      11.01594978      11.01594978      10.07642412      -0.00000000      -0.00000000       0.00000000
Mg      12.85194141      12.85194141      11.75582814       0.00000000      -0.00000000      -0.00000000
128
Lattice="14.70088755 0.0 -0.0 0.0 14.70088755 0.0 -0.0 0.0 13.39510461" Properties=species:S:1:pos:R:3:forces:R:3 energy=-189.32418068 stress="-0.0008352927028305818 -0.0 -0.0 -0.0 -0.0008352927028305818 -0.0 -0.0 -0.0 0.0018044627680039607" free_energy=-189.32674463 pbc="T T T"
Mg       0.00000000       0.00000000       0.00000000      -0.00000000       0.00000000      -0.00000000
Mg       1.83761094       1.83761094       1.67438808      -0.00000000       0.00000000       0.00000000
Mg       3.67522189       0.00000000       0.00000000      -0.00000000      -0.00000000      -0.00000000
Mg       5.51283283       1.83761094       1.67438808      -0.00000000      -0.00000000      -0.00000000
Mg       7.35044377       0.00000000       0.00000000       0.00000000      -0.00000000       0.00000000
Mg       9.18805472       1.83761094       1.67438808       0.00000000       0.00000000       0.00000000
Mg      11.02566566       0.00000000       0.00000000       0.00000000      -0.00000000      -0.00000000
Mg      12.86327661       1.83761094       1.67438808       0.00000000      -0.00000000      -0.00000000
Mg       0.00000000       3.67522189       0.00000000       0.00000000      -0.00000000      -0.00000000
Mg       1.83761094       5.51283283       1.67438808       0.00000000      -0.00000000      -0.00000000
Mg       3.67522189       3.67522189       0.00000000      -0.00000000      -0.00000000      -0.00000000
Mg       5.51283283       5.51283283       1.67438808      -0.00000000      -0.00000000       0.00000000
Mg       7.35044377       3.67522189       0.00000000      -0.00000000       0.00000000       0.00000000
Mg       9.18805472       5.51283283       1.67438808       0.00000000       0.00000000      -0.00000000
Mg      11.02566566       3.67522189       0.00000000       0.00000000      -0.00000000      -0.00000000
Mg      12.86327661       5.51283283       1.67438808       0.00000000      -0.00000000      -0.00000000
Mg       0.00000000       7.35044377       0.00000000       0.00000000      -0.00000000      -0.00000000
Mg       1.83761094       9.18805472       1.67438808      -0.00000000       0.00000000       0.00000000
Mg       3.67522189       7.35044377       0.00000000      -0.00000000       0.00000000       0.00000000
Mg       5.51283283       9.18805472       1.67438808      -0.00000000      -0.00000000       0.00000000
Mg       7.35044377       7.35044377       0.00000000       0.00000000      -0.00000000       0.00000000
Mg       9.18805472       9.18805472       1.67438808       0.00000000       0.00000000      -0.00000000
Mg      11.02566566       7.35044377       0.00000000       0.00000000      -0.00000000       0.00000000
Mg      12.86327661       9.18805472       1.67438808      -0.00000000       0.00000000       0.00000000
Mg       0.00000000      11.02566566       0.00000000      -0.00000000       0.00000000       0.00000000
Mg       1.83761094      12.86327661       1.67438808      -0.00000000       0.00000000       0.00000000
Mg       3.67522189      11.02566566       0.00000000       0.00000000       0.00000000       0.00000000
Mg       5.51283283      12.86327661       1.67438808       0.00000000      -0.00000000       0.00000000
Mg       7.35044377      11.02566566       0.00000000       0.00000000       0.00000000      -0.00000000
Mg       9.18805472      12.86327661       1.67438808       0.00000000       0.00000000       0.00000000
Mg      11.02566566      11.02566566       0.00000000      -0.00000000      -0.00000000       0.00000000
Mg      12.86327661      12.86327661       1.67438808      -0.00000000      -0.00000000       0.00000000
Mg       0.00000000       0.00000000       3.34877615      -0.00000000       0.00000000       0.00000000
Mg       1.83761094       1.83761094       5.02316423      -0.00000000      -0.00000000      -0.00000000
Mg       3.67522189       0.00000000       3.34877615      -0.00000000       0.00000000       0.00000000
Mg       5.51283283       1.83761094       5.02316423      -0.00000000      -0.00000000       0.00000000
Mg       7.35044377       0.00000000       3.34877615       0.00000000      -0.00000000       0.00000000
Mg       9.18805472       1.83761094       5.02316423       0.00000000      -0.00000000      -0.00000000
Mg      11.02566566       0.00000000       3.34877615       0.00000000       0.00000000       0.00000000
Mg      12.86327661       1.83761094       5.02316423       0.00000000      -0.00000000      -0.00000000
Mg       0.00000000       3.67522189       3.34877615       0.00000000      -0.00000000       0.00000000
Mg       1.83761094       5.51283283       5.02316423       0.00000000      -0.00000000      -0.00000000
Mg       3.67522189       3.67522189       3.34877615      -0.00000000       0.00000000      -0.00000000
Mg       5.51283283       5.51283283       5.02316423       0.00000000       0.00000000      -0.00000000
Mg       7.35044377       3.67522189       3.34877615      -0.00000000      -0.00000000      -0.00000000
Mg       9.18805472       5.51283283       5.02316423       0.00000000       0.00000000      -0.00000000
Mg      11.02566566       3.67522189       3.34877615       0.00000000      -0.00000000       0.00000000
Mg      12.86327661       5.51283283       5.02316423      -0.00000000       0.00000000      -0.00000000
Mg       0.00000000       7.35044377       3.34877615       0.00000000      -0.00000000       0.00000000
Mg       1.83761094       9.18805472       5.02316423      -0.00000000       0.00000000       0.00000000
Mg       3.67522189       7.35044377       3.34877615       0.00000000      -0.00000000       0.00000000
Mg       5.51283283       9.18805472       5.02316423      -0.00000000      -0.00000000       0.00000000
Mg       7.35044377       7.35044377       3.34877615       0.00000000       0.00000000      -0.00000000
Mg       9.18805472       9.18805472       5.02316423       0.00000000       0.00000000      -0.00000000
Mg      11.02566566       7.35044377       3.34877615      -0.00000000       0.00000000       0.00000000
Mg      12.86327661       9.18805472       5.02316423      -0.00000000      -0.00000000       0.00000000
Mg       0.00000000      11.02566566       3.34877615      -0.00000000      -0.00000000       0.00000000
Mg       1.83761094      12.86327661       5.02316423       0.00000000      -0.00000000       0.00000000
Mg       3.67522189      11.02566566       3.34877615      -0.00000000       0.00000000       0.00000000
Mg       5.51283283      12.86327661       5.02316423      -0.00000000       0.00000000      -0.00000000
Mg       7.35044377      11.02566566       3.34877615       0.00000000      -0.00000000      -0.00000000
Mg       9.18805472      12.86327661       5.02316423       0.00000000       0.00000000       0.00000000
Mg      11.02566566      11.02566566       3.34877615       0.00000000       0.00000000       0.00000000
Mg      12.86327661      12.86327661       5.02316423       0.00000000       0.00000000       0.00000000
Mg       0.00000000       0.00000000       6.69755231       0.00000000      -0.00000000      -0.00000000
Mg       1.83761094       1.83761094       8.37194038      -0.00000000      -0.00000000       0.00000000
Mg       3.67522189       0.00000000       6.69755231      -0.00000000      -0.00000000       0.00000000
Mg       5.51283283       1.83761094       8.37194038       0.00000000       0.00000000      -0.00000000
Mg       7.35044377       0.00000000       6.69755231       0.00000000       0.00000000       0.00000000
Mg       9.18805472       1.83761094       8.37194038      -0.00000000       0.00000000       0.00000000
Mg      11.02566566       0.00000000       6.69755231       0.00000000      -0.00000000       0.00000000
Mg      12.86327661       1.83761094       8.37194038      -0.00000000       0.00000000       0.00000000
Mg       0.00000000       3.67522189       6.69755231      -0.00000000       0.00000000      -0.00000000
Mg       1.83761094       5.51283283       8.37194038      -0.00000000      -0.00000000       0.00000000
Mg       3.67522189       3.67522189       6.69755231       0.00000000      -0.00000000      -0.00000000
Mg       5.51283283       5.51283283       8.37194038       0.00000000      -0.00000000      -0.00000000
Mg       7.35044377       3.67522189       6.69755231       0.00000000       0.00000000       0.00000000
Mg       9.18805472       5.51283283       8.37194038       0.00000000      -0.00000000       0.00000000
Mg      11.02566566       3.67522189       6.69755231      -0.00000000       0.00000000       0.00000000
Mg      12.86327661       5.51283283       8.37194038       0.00000000       0.00000000       0.00000000
Mg       0.00000000       7.35044377       6.69755231      -0.00000000      -0.00000000       0.00000000
Mg       1.83761094       9.18805472       8.37194038      -0.00000000       0.00000000       0.00000000
Mg       3.67522189       7.35044377       6.69755231      -0.00000000       0.00000000       0.00000000
Mg       5.51283283       9.18805472       8.37194038      -0.00000000       0.00000000      -0.00000000
Mg       7.35044377       7.35044377       6.69755231       0.00000000      -0.00000000       0.00000000
Mg       9.18805472       9.18805472       8.37194038       0.00000000      -0.00000000      -0.00000000
Mg      11.02566566       7.35044377       6.69755231       0.00000000      -0.00000000      -0.00000000
Mg      12.86327661       9.18805472       8.37194038       0.00000000       0.00000000      -0.00000000
Mg       0.00000000      11.02566566       6.69755231       0.00000000      -0.00000000      -0.00000000
Mg       1.83761094      12.86327661       8.37194038       0.00000000      -0.00000000      -0.00000000
Mg       3.67522189      11.02566566       6.69755231      -0.00000000       0.00000000      -0.00000000
Mg       5.51283283      12.86327661       8.37194038      -0.00000000      -0.00000000      -0.00000000
Mg       7.35044377      11.02566566       6.69755231      -0.00000000      -0.00000000       0.00000000
Mg       9.18805472      12.86327661       8.37194038       0.00000000       0.00000000       0.00000000
Mg      11.02566566      11.02566566       6.69755231       0.00000000       0.00000000      -0.00000000
Mg      12.86327661      12.86327661       8.37194038       0.00000000       0.00000000       0.00000000
Mg       0.00000000       0.00000000      10.04632846      -0.00000000       0.00000000       0.00000000
Mg       1.83761094       1.83761094      11.72071653      -0.00000000      -0.00000000       0.00000000
Mg       3.67522189       0.00000000      10.04632846      -0.00000000       0.00000000       0.00000000
Mg       5.51283283       1.83761094      11.72071653      -0.00000000       0.00000000      -0.00000000
Mg       7.35044377       0.00000000      10.04632846       0.00000000      -0.00000000      -0.00000000
Mg       9.18805472       1.83761094      11.72071653       0.00000000      -0.00000000      -0.00000000
Mg      11.02566566       0.00000000      10.04632846       0.00000000       0.00000000       0.00000000
Mg      12.86327661       1.83761094      11.72071653       0.00000000       0.00000000      -0.00000000
Mg       0.00000000       3.67522189      10.04632846      -0.00000000      -0.00000000      -0.00000000
Mg       1.83761094       5.51283283      11.72071653      -0.00000000      -0.00000000      -0.00000000
Mg       3.67522189       3.67522189      10.04632846      -0.00000000      -0.00000000       0.00000000
Mg       5.51283283       5.51283283      11.72071653      -0.00000000       0.00000000       0.00000000
Mg       7.35044377       3.67522189      10.04632846       0.00000000      -0.00000000       0.00000000
Mg       9.18805472       5.51283283      11.72071653       0.00000000      -0.00000000      -0.00000000
Mg      11.02566566       3.67522189      10.04632846      -0.00000000       0.00000000      -0.00000000
Mg      12.86327661       5.51283283      11.72071653       0.00000000       0.00000000      -0.00000000
Mg       0.00000000       7.35044377      10.04632846       0.00000000       0.00000000      -0.00000000
Mg       1.83761094       9.18805472      11.72071653       0.00000000      -0.00000000      -0.00000000
Mg       3.67522189       7.35044377      10.04632846      -0.00000000       0.00000000       0.00000000
Mg       5.51283283       9.18805472      11.72071653      -0.00000000      -0.00000000       0.00000000
Mg       7.35044377       7.35044377      10.04632846       0.00000000       0.00000000      -0.00000000
Mg       9.18805472       9.18805472      11.72071653      -0.00000000       0.00000000      -0.00000000
Mg      11.02566566       7.35044377      10.04632846       0.00000000       0.00000000      -0.00000000
Mg      12.86327661       9.18805472      11.72071653       0.00000000       0.00000000      -0.00000000
Mg       0.00000000      11.02566566      10.04632846       0.00000000       0.00000000      -0.00000000
Mg       1.83761094      12.86327661      11.72071653      -0.00000000      -0.00000000      -0.00000000
Mg       3.67522189      11.02566566      10.04632846      -0.00000000      -0.00000000       0.00000000
Mg       5.51283283      12.86327661      11.72071653       0.00000000       0.00000000       0.00000000
Mg       7.35044377      11.02566566      10.04632846      -0.00000000      -0.00000000       0.00000000
Mg       9.18805472      12.86327661      11.72071653       0.00000000      -0.00000000      -0.00000000
Mg      11.02566566      11.02566566      10.04632846      -0.00000000       0.00000000       0.00000000
Mg      12.86327661      12.86327661      11.72071653      -0.00000000       0.00000000      -0.00000000
128
Lattice="14.72120328 0.0 -0.0 0.0 14.72120328 0.0 -0.0 0.0 13.33217512" Properties=species:S:1:pos:R:3:forces:R:3 energy=-189.34151316 stress="-0.0008890634849538307 -0.0 0.0 -0.0 -0.0008890634849538307 0.0 0.0 0.0 1.7899874225901576e-05" free_energy=-189.34644742 pbc="T T T"
Mg       0.00000000       0.00000000       0.00000000       0.00000000      -0.00000000      -0.00000000
Mg       1.84015041       1.84015041       1.66652189       0.00000000      -0.00000000      -0.00000000
Mg       3.68030082       0.00000000       0.00000000       0.00000000       0.00000000      -0.00000000
Mg       5.52045123       1.84015041       1.66652189      -0.00000000       0.00000000      -0.00000000
Mg       7.36060164       0.00000000       0.00000000       0.00000000      -0.00000000       0.00000000
Mg       9.20075205       1.84015041       1.66652189      -0.00000000      -0.00000000       0.00000000
Mg      11.04090246       0.00000000       0.00000000      -0.00000000       0.00000000       0.00000000
Mg      12.88105287       1.84015041       1.66652189      -0.00000000       0.00000000       0.00000000
Mg       0.00000000       3.68030082       0.00000000       0.00000000      -0.00000000       0.00000000
Mg       1.84015041       5.52045123       1.66652189       0.00000000       0.00000000       0.00000000
Mg       3.68030082       3.68030082       0.00000000      -0.00000000       0.00000000      -0.00000000
Mg       5.52045123       5.52045123       1.66652189      -0.00000000       0.00000000      -0.00000000
Mg       7.36060164       3.68030082       0.00000000      -0.00000000      -0.00000000       0.00000000
Mg       9.20075205       5.52045123       1.66652189      -0.00000000       0.00000000      -0.00000000
Mg      11.04090246       3.68030082       0.00000000       0.00000000       0.00000000       0.00000000
Mg      12.88105287       5.52045123       1.66652189      -0.00000000      -0.00000000       0.00000000
Mg       0.00000000       7.36060164       0.00000000       0.00000000      -0.00000000       0.00000000
Mg       1.84015041       9.20075205       1.66652189       0.00000000      -0.00000000       0.00000000
Mg       3.68030082       7.36060164       0.00000000       0.00000000       0.00000000       0.00000000
Mg       5.52045123       9.20075205       1.66652189       0.00000000      -0.00000000      -0.00000000
Mg       7.36060164       7.36060164       0.00000000      -0.00000000       0.00000000      -0.00000000