128
Lattice="13.39276149 0.0 0.0 -6.69638074 11.59847167 0.0 0.0 0.0 21.55792196" Properties=species:S:1:pos:R:3:forces:R:3 energy=-187.24045392 stress="0.02457341397251276 3.666493396381484e-06 1.8662112286390945e-09 3.666493396381484e-06 0.02457764894256033 4.6436827896571444e-09 1.8662112286390945e-09 4.6436827896571444e-09 0.02844816018301495" free_energy=-187.25627461 pbc="T T T"
Mg       0.00000000       0.00000000       0.00000000      -0.00000144      -0.00000156       0.00000528
Mg      -0.00000007       1.93307865       2.69474025       0.00003328      -0.00002146       0.00000022
Mg       3.34819037       0.00000000       0.00000000       0.00000247      -0.00000120       0.00000407
Mg       3.34819031       1.93307865       2.69474025       0.00003206      -0.00002017       0.00000126
Mg       6.69638074       0.00000000       0.00000000       0.00000237      -0.00000038       0.00000467
Mg       6.69638068       1.93307865       2.69474025       0.00003126      -0.00001882      -0.00000127
Mg      10.04457112       0.00000000       0.00000000       0.00000141      -0.00000081       0.00000449
Mg      10.04457105       1.93307865       2.69474025       0.00003466      -0.00002018      -0.00000083
Mg      -1.67409519       2.89961792       0.00000000      -0.00000060      -0.00000264       0.00000545
Mg      -1.67409525       4.83269657       2.69474025       0.00003141      -0.00001794       0.00000150
Mg       1.67409519       2.89961792       0.00000000      -0.00000047      -0.00000017       0.00000483
Mg       1.67409512       4.83269657       2.69474025       0.00003349      -0.00001904       0.00000252
Mg       5.02228556       2.89961792       0.00000000       0.00000081      -0.00000149       0.00000479
Mg       5.02228549       4.83269657       2.69474025       0.00003478      -0.00001683       0.00000105
Mg       8.37047593       2.89961792       0.00000000       0.00000262      -0.00000149       0.00000334
Mg       8.37047587       4.83269657       2.69474025       0.00003261      -0.00001578       0.00000105
Mg      -3.34819037       5.79923584       0.00000000       0.00000080      -0.00000205       0.00000415
Mg      -3.34819044       7.73231449       2.69474025       0.00003178      -0.00001882       0.00000211
Mg       0.00000000       5.79923584       0.00000000       0.00000236      -0.00000124       0.00000476
Mg      -0.00000006       7.73231449       2.69474025       0.00003316      -0.00001837       0.00000035
Mg       3.34819037       5.79923584       0.00000000       0.00000163      -0.00000046       0.00000550
Mg       3.34819031       7.73231449       2.69474025       0.00003424      -0.00001798      -0.00000141
Mg       6.69638075       5.79923584       0.00000000       0.00000173       0.00000025       0.00000630
Mg       6.69638068       7.73231449       2.69474025       0.00003331      -0.00001976       0.00000062
Mg      -5.02228555       8.69885375       0.00000000       0.00000028      -0.00000047       0.00000470
Mg      -5.02228562      10.63193240       2.69474025       0.00003192      -0.00001913       0.00000215
Mg      -1.67409518       8.69885375       0.00000000       0.00000149      -0.00000013       0.00000538
Mg      -1.67409525      10.63193240       2.69474025       0.00003018      -0.00002013       0.00000017
Mg       1.67409519       8.69885375       0.00000000       0.00000215       0.00000039       0.00000454
Mg       1.67409512      10.63193240       2.69474025       0.00003488      -0.00001996      -0.00000218
Mg       5.02228556       8.69885375       0.00000000       0.00000167       0.00000004       0.00000415
Mg       5.02228550      10.63193240       2.69474025       0.00003297      -0.00001931       0.00000065
Mg       0.00000000       0.00000000       5.38948049       0.00000286      -0.00000185      -0.00000322
Mg      -0.00000007       1.93307865       8.08422074       0.00003373      -0.00001980      -0.00000419
Mg       3.34819037       0.00000000       5.38948049       0.00000091      -0.00000182      -0.00000353
Mg       3.34819031       1.93307865       8.08422074       0.00003384      -0.00001943      -0.00000502
Mg       6.69638074       0.00000000       5.38948049       0.00000220      -0.00000118      -0.00000208
Mg       6.69638068       1.93307865       8.08422074       0.00003278      -0.00001865      -0.00000440
Mg      10.04457112       0.00000000       5.38948049       0.00000132       0.00000044      -0.00000281
Mg      10.04457105       1.93307865       8.08422074       0.00003431      -0.00001936      -0.00000255
Mg      -1.67409519       2.89961792       5.38948049       0.00000025      -0.00000025      -0.00000229
Mg      -1.67409525       4.83269657       8.08422074       0.00003149      -0.00001980      -0.00000568
Mg       1.67409519       2.89961792       5.38948049       0.00000078      -0.00000193      -0.00000374
Mg       1.67409512       4.83269657       8.08422074       0.00003107      -0.00001843      -0.00000684
Mg       5.02228556       2.89961792       5.38948049       0.00000225      -0.00000130      -0.00000353
Mg       5.02228549       4.83269657       8.08422074       0.00003503      -0.00001801      -0.00000486
Mg       8.37047593       2.89961792       5.38948049       0.00000111      -0.00000004      -0.00000383
Mg       8.37047587       4.83269657       8.08422074       0.00003252      -0.00001655      -0.00000381
Mg      -3.34819037       5.79923584       5.38948049       0.00000107      -0.00000143      -0.00000243
Mg      -3.34819044       7.73231449       8.08422074       0.00003087      -0.00001673      -0.00000396
Mg       0.00000000       5.79923584       5.38948049       0.00000102       0.00000031      -0.00000194
Mg      -0.00000006       7.73231449       8.08422074       0.00003240      -0.00001963      -0.00000428
Mg       3.34819037       5.79923584       5.38948049       0.00000228      -0.00000074      -0.00000520
Mg       3.34819031       7.73231449       8.08422074       0.00003338      -0.00001832      -0.00000698
Mg       6.69638075       5.79923584       5.38948049       0.00000261       0.00000076      -0.00000088
Mg       6.69638068       7.73231449       8.08422074       0.00003421      -0.00001801      -0.00000481
Mg      -5.02228555       8.69885375       5.38948049       0.00000079       0.00000085      -0.00000179
Mg      -5.02228562      10.63193240       8.08422074       0.00003375      -0.00001904      -0.00000544
Mg      -1.67409518       8.69885375       5.38948049      -0.00000127       0.00000068      -0.00000387
Mg      -1.67409525      10.63193240       8.08422074       0.00003178      -0.00001884      -0.00000524
Mg       1.67409519       8.69885375       5.38948049       0.00000014       0.00000105      -0.00000137
Mg       1.67409512      10.63193240       8.08422074       0.00003183      -0.00001844      -0.00000524
Mg       5.02228556       8.69885375       5.38948049       0.00000374       0.00000006      -0.00000224
Mg       5.02228550      10.63193240       8.08422074       0.00003400      -0.00001852      -0.00000440
Mg       0.00000000       0.00000000      10.77896098      -0.00000051      -0.00000351      -0.00000123
Mg      -0.00000007       1.93307865      13.47370123       0.00003240      -0.00002097      -0.00000063
Mg       3.34819037       0.00000000      10.77896098       0.00000158      -0.00000233      -0.00000236
Mg       3.34819031       1.93307865      13.47370123       0.00003086      -0.00002085      -0.00000130
Mg       6.69638074       0.00000000      10.77896098       0.00000106      -0.00000224      -0.00000382
Mg       6.69638068       1.93307865      13.47370123       0.00003336      -0.00001834      -0.00000141
Mg      10.04457112       0.00000000      10.77896098       0.00000399      -0.00000017      -0.00000343
Mg      10.04457105       1.93307865      13.47370123       0.00003441      -0.00001877      -0.00000106
Mg      -1.67409519       2.89961792      10.77896098       0.00000029      -0.00000261      -0.00000255
Mg      -1.67409525       4.83269657      13.47370123       0.00003175      -0.00001899      -0.00000137
Mg       1.67409519       2.89961792      10.77896098       0.00000181      -0.00000265      -0.00000248
Mg       1.67409512       4.83269657      13.47370123       0.00003275      -0.00002041      -0.00000150
Mg       5.02228556       2.89961792      10.77896098       0.00000120      -0.00000142      -0.00000453
Mg       5.02228549       4.83269657      13.47370123       0.00003519      -0.00001722      -0.00000032
Mg       8.37047593       2.89961792      10.77896098       0.00000225       0.00000061      -0.00000208
Mg       8.37047587       4.83269657      13.47370123       0.00003288      -0.00001770      -0.00000194
Mg      -3.34819037       5.79923584      10.77896098      -0.00000124      -0.00000080      -0.00000194
Mg      -3.34819044       7.73231449      13.47370123       0.00003028      -0.00001659      -0.00000166
Mg       0.00000000       5.79923584      10.77896098      -0.00000018      -0.00000033      -0.00000497
Mg      -0.00000006       7.73231449      13.47370123       0.00003120      -0.00001887       0.00000009
Mg       3.34819037       5.79923584      10.77896098       0.00000152      -0.00000001      -0.00000358
Mg       3.34819031       7.73231449      13.47370123       0.00003524      -0.00001881      -0.00000352
Mg       6.69638075       5.79923584      10.77896098       0.00000299      -0.00000064      -0.00000386
Mg       6.69638068       7.73231449      13.47370123       0.00003330      -0.00001743      -0.00000058
Mg      -5.02228555       8.69885375      10.77896098       0.00000183       0.00000068      -0.00000332
Mg      -5.02228562      10.63193240      13.47370123       0.00003142      -0.00002126      -0.00000234
Mg      -1.67409518       8.69885375      10.77896098      -0.00000013       0.00000042      -0.00000405
Mg      -1.67409525      10.63193240      13.47370123       0.00002966      -0.00001958      -0.00000078
Mg       1.67409519       8.69885375      10.77896098       0.00000151       0.00000039      -0.00000329
Mg       1.67409512      10.63193240      13.47370123       0.00003263      -0.00001906      -0.00000049
Mg       5.02228556       8.69885375      10.77896098       0.00000265       0.00000008      -0.00000247
Mg       5.02228550      10.63193240      13.47370123       0.00003566      -0.00001742      -0.00000142
Mg       0.00000000       0.00000000      16.16844147       0.00000070      -0.00000301       0.00000301
Mg      -0.00000007       1.93307865      18.86318172       0.00003190      -0.00002024       0.00000171
Mg       3.34819037       0.00000000      16.16844147      -0.00000111      -0.00000241       0.00000141
Mg       3.34819031       1.93307865      18.86318172       0.00003306      -0.00002115       0.00000529
Mg       6.69638074       0.00000000      16.16844147       0.00000095      -0.00000019       0.00000373
Mg       6.69638068       1.93307865      18.86318172       0.00003274      -0.00002064       0.00000499
Mg      10.04457112       0.00000000      16.16844147       0.00000224      -0.00000081       0.00000351
Mg      10.04457105       1.93307865      18.86318172       0.00003228      -0.00001938       0.00000567
Mg      -1.67409519       2.89961792      16.16844147       0.00000231      -0.00000104       0.00000204
Mg      -1.67409525       4.83269657      18.86318172       0.00003286      -0.00002025       0.00000320
Mg       1.67409519       2.89961792      16.16844147      -0.00000072      -0.00000310       0.00000097
Mg       1.67409512       4.83269657      18.86318172       0.00003237      -0.00001931       0.00000507
Mg       5.02228556       2.89961792      16.16844147       0.00000276      -0.00000173       0.00000176
Mg       5.02228549       4.83269657      18.86318172       0.00003275      -0.00001761       0.00000473
Mg       8.37047593       2.89961792      16.16844147       0.00000264      -0.00000038       0.00000176
Mg       8.37047587       4.83269657      18.86318172       0.00003443      -0.00001831       0.00000430
Mg      -3.34819037       5.79923584      16.16844147       0.00000042      -0.00000146       0.00000215
Mg      -3.34819044       7.73231449      18.86318172       0.00003387      -0.00001910       0.00000296
Mg       0.00000000       5.79923584      16.16844147      -0.00000117      -0.00000175       0.00000227
Mg      -0.00000006       7.73231449      18.86318172       0.00003184      -0.00001737       0.00000394
Mg       3.34819037       5.79923584      16.16844147       0.00000207      -0.00000006       0.00000322
Mg       3.34819031       7.73231449      18.86318172       0.00003279      -0.00001705       0.00000307
Mg       6.69638075       5.79923584      16.16844147       0.00000251      -0.00000106       0.00000222
Mg       6.69638068       7.73231449      18.86318172       0.00003335      -0.00001839       0.00000492
Mg      -5.02228555       8.69885375      16.16844147       0.00000128      -0.00000107       0.00000101
Mg      -5.02228562      10.63193240      18.86318172       0.00003216      -0.00001892       0.00000233
Mg      -1.67409518       8.69885375      16.16844147       0.00000024      -0.00000065       0.00000149
Mg      -1.67409525      10.63193240      18.86318172       0.00003293      -0.00001854       0.00000423
Mg       1.67409519       8.69885375      16.16844147       0.00000112       0.00000193       0.00000507
Mg       1.67409512      10.63193240      18.86318172       0.00003381      -0.00001897       0.00000418
Mg       5.02228556       8.69885375      16.16844147       0.00000193       0.00000126       0.00000221
Mg       5.02228550      10.63193240      18.86318172       0.00003309      -0.00001826       0.00000492
128
Lattice="13.39276149 0.0 0.0 -6.69638074 11.59847167 0.0 0.0 0.0 21.55792196" Properties=species:S:1:pos:R:3:forces:R:3 energy=-187.22603495 stress="0.02440479029114541 1.022845408380584e-05 -1.963728567221894e-06 1.022845408380584e-05 0.024404581462733076 -4.2743726946786316e-07 -1.963728567221894e-06 -4.2743726946786316e-07 0.02825768748728455" free_energy=-187.24185115 pbc="T T T"
Mg       0.00388290       0.01148655       0.00151768      -0.01357739      -0.02129220      -0.00251298
Mg      -0.00612116       1.92644189       2.70308639       0.01254328       0.02224199      -0.01442420
Mg       3.34449919       0.00857405      21.55632366       0.00238930      -0.01629189       0.00808770
Mg       3.33709882       1.92738264       2.69738109       0.01070189       0.01058007      -0.00826109
Mg       6.68713338       0.00032279      21.55786612       0.01954990       0.00056492       0.00608623
Mg       6.68765094       1.93303214       2.69980118       0.02009803      -0.00218924      -0.01045072
Mg       3.34204765      11.59572492       0.00971465       0.00914358       0.00378788      -0.00999959
Mg      10.05166674       1.94469139       2.69094433      -0.02042960      -0.01851402       0.01006365
Mg      -1.67803513       2.90779681       0.00101861       0.01196382      -0.01038950       0.00234512
Mg      -1.67481364       4.82920218       2.69925081       0.00856252       0.00953928      -0.01218241
Mg       1.67855638       2.90539616       0.00102335      -0.00999713      -0.00405689       0.00444915
Mg       1.68766085       4.83078665       2.68853825      -0.02309100      -0.00329462       0.01144136
Mg       5.01651924       2.89364737      21.55661059       0.01366042       0.01900823       0.01110258
Mg       5.03169907       4.83533905       2.68985953      -0.01055211      -0.00583564       0.00211354
Mg       8.37606835       2.89260316       0.00094488      -0.01691549       0.01627975       0.00550704
Mg       8.36882106       4.83664515       2.69480255       0.00351508      -0.00900475      -0.00214965
Mg      -3.35346779       5.80922351      21.55760592       0.01393190      -0.01483938      -0.00395645
Mg      -3.34578362       7.73054897       2.68784257      -0.00963637       0.00825446       0.01409195
Mg       0.00161992       5.80296880      21.55728729      -0.00794497      -0.00412331       0.00713062
Mg      -0.00113845       7.71680455       2.70685774      -0.00272117       0.02279291      -0.01491258
Mg       3.34488712       5.80800184       0.00494991       0.00737797      -0.01840290      -0.01223554
Mg       3.34759386       7.73560022       2.69127050      -0.00158701      -0.01054032       0.01007037
Mg       6.70012135       5.79885146      21.55431510      -0.00621344       0.00685261       0.01461631
Mg       6.68532047       7.74059336       2.71393456       0.02107859      -0.01105703      -0.03376676
Mg      -5.01756220       8.70690843       0.00120617      -0.02055161      -0.01147834      -0.00274476
Mg      -5.02570379      10.63041544       2.69615056       0.00940240       0.00496365      -0.00880585
Mg      -1.67289271       8.70443529       0.00131158       0.00246014      -0.01010107      -0.00346564
Mg      -1.67878272      10.63298485       2.69481570       0.01268418      -0.00921720       0.00431142
Mg       1.67559478       8.70880431       0.01011584      -0.01307655      -0.01670225      -0.01003481
Mg       1.67379225      10.62670880       2.70624097      -0.00575431       0.01878301      -0.01804525
Mg       5.01265992       8.69467737       0.00558091       0.03196829       0.01717986      -0.01037079
Mg       5.02572516      10.63405214       2.69413619      -0.01421695      -0.00225893       0.00363603
Mg       0.00457698       0.00768839       5.38382369      -0.01841301      -0.02057902       0.01415272
Mg      -0.00421417       1.93048813       8.08171786       0.01180861       0.00489179       0.00091298
Mg       3.34824582       0.00269525       5.38260869       0.00422990      -0.00471905       0.02207145
Mg       3.34834539       1.94325422       8.07981343      -0.00041068      -0.02456928       0.00326994
Mg       0.00559289      11.59613539       5.38988255      -0.01875906       0.00240981       0.00218160
Mg       6.68809806       1.93350455       8.08554892       0.01645070       0.00200239       0.00476166
Mg      10.04024023       0.00236760       5.38563111       0.01680057      -0.00494290       0.00735826
Mg      10.04551705       1.93134201       8.07594616      -0.00292657       0.00596291       0.01493808
Mg      11.71185910       2.89638276       5.38841876       0.01289211       0.00619279       0.00473201
Mg      -1.66817210       4.83907283       8.07226277      -0.00784414      -0.01360590       0.01818690
Mg       1.68053295       2.90031661       5.38894801      -0.02287431       0.00555065      -0.00040185
Mg       1.67691972       4.82922828       8.08299560      -0.01595044       0.01119189      -0.00678594
Mg       5.01882166       2.89393351       5.37825679       0.00776594       0.01352885       0.01739990
Mg       5.01589802       4.83818670       8.08342827       0.01523158      -0.01243910      -0.00762146
Mg       8.36290233       2.89966965       5.39409669       0.01154254      -0.00011472      -0.01396590
Mg       8.37632864       4.82733367       8.07976902      -0.00925893       0.01037546      -0.00271221
Mg      -3.34494363       5.79787452       5.38753014      -0.01331352       0.00913246       0.00445186
Mg      -3.34037871       7.73389443       8.08901306      -0.01867026      -0.00229267      -0.01198503
Mg      -0.00987133       5.80176906       5.38914591       0.03086398      -0.01341395      -0.00172426
Mg      -0.00193471       7.73130252       8.08233442       0.01362573       0.00492217       0.00451392
Mg       3.35124145       5.79133043       5.37758332      -0.00428830       0.01135660       0.01242514
Mg       3.34296552       7.72730487       8.07241389       0.00523044       0.00807582       0.01911157
Mg       6.70793341       5.80454318       5.38942616      -0.02322024      -0.01146236       0.00357412
Mg       6.68792931       7.72683398       8.08463098       0.01576832       0.00595049      -0.00939674
Mg      -5.02025823       8.70793640       5.38289368      -0.00459200      -0.02075631       0.01393246
Mg      -5.03213720      10.62356132       8.07668021       0.01874790       0.01875931       0.00618063
Mg      -1.67948222       8.70145981       5.40232621       0.00559714       0.00193071      -0.02469310
Mg      -1.66855091      10.63234995       8.09014076      -0.01491768       0.00577354      -0.00924718
Mg       1.67353557       8.69790001       5.38363808      -0.00287682      -0.00616935       0.01440130
Mg       1.67849840      10.62755932       8.07806379      -0.01090942       0.01058139       0.00756286
Mg       5.01433917       8.69421077       5.38894672       0.01489944       0.01815883       0.00825363
Mg       5.02170057      10.62786865       8.09571175       0.00073160       0.00518976      -0.02568973
Mg      -6.69485986      11.59818565      10.77945789       0.00370469       0.00457067      -0.00944377
Mg       0.00748488       1.92182280      13.47883611      -0.01726581       0.01655816      -0.00490083
Mg      -3.33615958      11.59556219      10.77725812      -0.02373070       0.00888873      -0.00600343
Mg       3.34417040       1.94408641      13.46880628       0.01771649      -0.01644425       0.00567187
Mg      -0.00784969      11.59444294      10.78749943       0.02711384       0.01586454      -0.01725207
Mg       6.69761850       1.93341071      13.47092327      -0.00716758      -0.00266643       0.00621981
Mg       3.34921358      11.59615870      10.77526897      -0.00415189       0.01733156       0.00876465
Mg      10.03559382       1.93692992      13.47204040       0.02189347      -0.01374897      -0.00567106
Mg      -1.66250429       2.91408910      10.77821163      -0.01360147      -0.02492570      -0.00332188
Mg      -1.67241553       4.82123565      13.47393297      -0.00892964       0.01776172       0.00105448
Mg       1.68108668       2.89743868      10.77539207      -0.01273280      -0.00015151       0.00562461
Mg       1.67198744       4.83008239      13.47346172       0.00316310       0.00581115       0.00038530
Mg       5.03016934       2.89991901      10.78419029      -0.00877442       0.00587010      -0.01020732
Mg       5.02266190       4.83215480      13.48162505      -0.00465141      -0.00090366      -0.01155158
Mg       8.38285419       2.91081392      10.77986469      -0.01784082      -0.02529277      -0.01019541
Mg       8.36127116       4.82555168      13.47214798       0.01012828       0.01415338       0.00345781
Mg      10.04065488       5.80074306      10.77051480       0.01789037       0.00247853       0.01726204
Mg      -3.35298879       7.73700212      13.47356282       0.00273546      -0.01285896      -0.00993174
Mg       0.00199559       5.80601990      10.78196012      -0.00465434      -0.00785851      -0.01088383
Mg      -0.00922165       7.72699937      13.47615107       0.01587826       0.00367903       0.00082990
Mg       3.33939006       5.79257124      10.77684529       0.02486142       0.02002007       0.00883151
Mg       3.34951499       7.72971364      13.48495640      -0.00895660       0.00247149      -0.01716351
Mg       6.70574852       5.80079873      10.76823354      -0.02388720      -0.00782871       0.01544345
Mg       6.69502386       7.72702605      13.47172178       0.00598719       0.01572270      -0.00440386
Mg      -5.01746162       8.69418189      10.76663330      -0.00243901       0.01187010       0.01912329
Mg      -5.01912252      10.64537573      13.45944777      -0.00095699      -0.02955471       0.01667187
Mg      -1.66876968       8.70258614      10.78435089      -0.00826363      -0.00974842      -0.00542076
Mg      -1.66846640      10.63305050      13.47947487      -0.01937353       0.00090559      -0.00692276
Mg       1.67610544       8.70664375      10.77843583       0.00293508      -0.02350685       0.00055136
Mg       1.67000404      10.62487844      13.46718771       0.01538928       0.00887466       0.01087271
Mg       5.03215770       8.69738481      10.78778485      -0.02523158      -0.00907400      -0.01228936
Mg       5.01937465      10.63265116      13.46846006       0.00966008      -0.00187746       0.01082188
Mg       6.69988322      11.59231474      16.17064835       0.00243081       0.01208874      -0.00503670
Mg       0.00330018       1.94365506      18.87635835      -0.00005526      -0.01533936      -0.01815131
Mg       3.35560461       0.00101927      16.16750413      -0.01881479      -0.00772458      -0.00479449
Mg       3.35404582       1.93209359      18.86525408      -0.01672978       0.00694966       0.00141746
Mg       0.00323436      11.58418722      16.15739239       0.00166568       0.02135900       0.02237815
Mg       6.70446696       1.93318605      18.86543991      -0.00980316      -0.00575945      -0.00237006
Mg      10.05146879       0.00615809      16.16936242      -0.01417288      -0.02133340      -0.00924071
Mg      10.04978472       1.92683635      18.86757781      -0.00736943       0.00961053       0.00112685
Mg      11.71837421       2.89929246      16.17190647       0.00707834      -0.00212244      -0.00864834
Mg      -1.67321428       4.83093801      18.86178778      -0.01127497       0.01591099      -0.00099828
Mg       1.68254917       2.89442609      16.17024005      -0.02006322       0.00481154       0.00099724
Mg       1.66812396       4.83042443      18.86472850       0.01812423       0.00542881       0.00119961
Mg       5.02108001       2.88862083      16.18383210       0.01282058       0.01493368      -0.02356474
Mg       5.02104619       4.83073863      18.87099776       0.00033065       0.00635205      -0.00501417
Mg       8.37512831       2.88349117      16.16632448      -0.01309637       0.02796831       0.00857533
Mg       8.37003672       4.82546654      18.86841016       0.00148398       0.01361264      -0.01472032
Mg      10.02990899       5.79875148      16.16142221       0.02070983      -0.00957167       0.00646640
Mg      -3.34412674       7.73943629      18.85436668      -0.00591360      -0.01561381       0.01005487
Mg       0.00423225       5.79965431      16.16804049      -0.02026747      -0.00604960       0.00133228
Mg       0.00892641       7.73169594      18.86210037      -0.01898166       0.00806465       0.00514061
Mg       3.34251693       5.79259153      16.17206471       0.00920082       0.00896348       0.00154101
Mg       3.35079225       7.72948214      18.86628110      -0.00805623       0.01024220      -0.00003174
Mg       6.68169813       5.80670780      16.16662737       0.01889711      -0.02952623       0.01015930
Mg       6.69238254       7.73455206      18.86166555       0.01411355      -0.00267303       0.01202316
Mg       8.36162519       8.68611190      16.16340231       0.01267972       0.03081874      -0.00017873
Mg      -5.01775083      10.63467080      18.86094616      -0.01536367      -0.00428169      -0.00300809
Mg      -1.68097953       8.69700484      16.16149508       0.01039076      -0.00059825       0.01661807
Mg      -1.68136263      10.63917878      18.86759936       0.02048495      -0.01204185      -0.01107791
Mg       1.67510480       8.69661096      16.17402001       0.00207176       0.00380432      -0.01478324
Mg       1.67210362      10.62878272      18.86041454       0.00716485       0.00872931       0.00543382
Mg       5.02500844       8.70031748      16.17387601      -0.01338177       0.00131622      -0.01037536
Mg       5.02414743      10.64358504      18.85850429      -0.00063288      -0.01726609       0.01765339
128
Lattice="13.39276149 0.0 0.0 -6.69638074 11.59847167 0.0 0.0 0.0 21.55792196" Properties=species:S:1:pos:R:3:forces:R:3 energy=-187.19053719 stress="0.02444276878815382 2.334648347403972e-05 3.8357818484028154e-07 2.334648347403972e-05 0.024415056181800954 -4.073558380062464e-06 3.8357818484028154e-07 -4.073558380062464e-06 0.028217427094539716" free_energy=-187.20634366 pbc="T T T"
Mg       0.00776050       0.02296463       0.00303406      -0.02200237      -0.03187975      -0.00366117
Mg      -0.01223723       1.91981383       2.71142672       0.02124175       0.03935175      -0.02804016
Mg       3.34080882       0.01714161      21.55472859      -0.00001036      -0.02445477       0.01423157
Mg       3.32601156       1.92169069       2.70001870       0.01744522       0.01709473      -0.01918398
Mg       6.67789398       0.00064569      21.55781266       0.02850545      -0.00028326       0.01183261
Mg       6.67892924       1.93298470       2.70485781       0.03083632      -0.00807431      -0.02202222
Mg       3.33590861      11.59297968       0.01942541       0.01988332       0.00832464      -0.01821248
Mg      10.05875412       1.95629670       2.68715229      -0.04097626      -0.03330123       0.02065562
Mg      -1.68197026       2.91597153       0.00203809       0.01622259      -0.01111909       0.00618672
Mg      -1.67552848       4.82571139       2.70375663       0.01272420       0.01272614      -0.02275923
Mg       1.68301370       2.91117278       0.00204865      -0.01805095      -0.00362491       0.01079750
Mg       1.70121734       4.82887534       2.68234078      -0.04581275      -0.00721406       0.02374974
Mg       5.01075841       2.88768425      21.55530375       0.02394505       0.02662331       0.01817346
Mg       5.04110848       4.83797921       2.68497968      -0.01333472      -0.00819409       0.00432980
Mg       8.38165407       2.88559467       0.00189214      -0.02984602       0.02214479       0.01332774
Mg       8.36716759       4.84059002       2.69486399       0.00402975      -0.01005503      -0.00439257
Mg      -3.35873958       5.81920516      21.55728837       0.02129942      -0.02178719      -0.00805541
Mg      -3.34338056       7.72878669       2.68095072      -0.01152905       0.01191426       0.02924330