108
Lattice="10.857 0.0 0.0 0.10884146 10.85645442 0.0 0.10884146 0.10775574 10.85591964" Properties=species:S:1:pos:R:3:forces:R:3 energy=-405.17150693 stress="-0.00048298758074101093 0.005331644357495795 0.00527901800600285 0.005331644357495795 -0.0005899515307669631 0.005226259403173036 0.00527901800600285 0.005226259403173036 -0.0006936319851210252" free_energy=-405.17599263 pbc="T T T"
Cu       0.00000000       0.00000000       0.00000000      -0.00000375      -0.00000749      -0.00000375
Cu       1.82764390       1.80941269       0.00000000      -0.01258710      -0.01246040      -0.00364690
Cu       0.03628056       1.82737201       1.80932356      -0.00388925      -0.01255557      -0.01243997
Cu       1.82764390       0.01795933       1.80932356      -0.01259941      -0.00375827      -0.01243946
Cu       3.61899638       0.00000000       0.00000000      -0.00066004       0.00226352       0.00222274
Cu       5.44664028       1.80941269       0.00000000      -0.00225492       0.00066252      -0.00225633
Cu       3.65527694       1.82737201       1.80932356      -0.00426933      -0.00447284      -0.00444012
Cu       5.44664028       0.01795933       1.80932356      -0.00223654      -0.00224272       0.00069078
Cu       7.23800362       0.00000000       0.00000000       0.00066962      -0.00226948      -0.00224128
Cu       9.06563666       1.80941269       0.00000000       0.00930653      -0.00941284      -0.00000697
Cu       7.27428418       1.82737201       1.80932356      -0.00158486      -0.00158052      -0.00156399
Cu       9.06563666       0.01795933       1.80932356       0.00930334      -0.00010591      -0.00940412
Cu       0.03628045       3.61881452       0.00000000       0.00225936      -0.00068483       0.00223341
Cu       1.86392435       5.42822721       0.00000000       0.00064146      -0.00225870      -0.00225031
Cu       0.07256101       5.44618654       1.80932356      -0.00226691      -0.00221657       0.00069064
Cu       1.86392435       3.63677385       1.80932356      -0.00452024      -0.00422397      -0.00444304
Cu       3.65527683       3.61881452       0.00000000       0.01257793       0.01245346       0.00361041
Cu       5.48292073       5.42822721       0.00000000       0.00000163       0.00000575       0.00000647
Cu       3.69155739       5.44618654       1.80932356       0.00930955      -0.00008160      -0.00938609
Cu       5.48292073       3.63677385       1.80932356       0.00000713       0.00931225      -0.00937737
Cu       7.27428407       3.61881452       0.00000000      -0.00929891       0.00939188       0.00000419
Cu       9.10191711       5.42822721       0.00000000      -0.00064367       0.00227499       0.00225314
Cu       7.31056463       5.44618654       1.80932356      -0.01258255      -0.00373862      -0.01240812
Cu       9.10191711       3.63677385       1.80932356       0.00451238       0.00447215       0.00417740
Cu       0.07256101       7.23763990       0.00000000      -0.00226242       0.00069127      -0.00223498
Cu       1.90020480       9.04704173       0.00000000      -0.00931628       0.00939869      -0.00000576
Cu       0.10884146       9.06500106       1.80932356      -0.00001105       0.00930488      -0.00941326
Cu       1.90020491       7.25559922       1.80932356      -0.00160010      -0.00156909      -0.00156466
Cu       3.69155739       7.23763990       0.00000000       0.00929986      -0.00939450      -0.00000146
Cu       5.51920118       9.04704173       0.00000000       0.00226379      -0.00066584       0.00224156
Cu       3.72783784       9.06500106       1.80932356       0.00451395       0.00445783       0.00417759
Cu       5.51920129       7.25559922       1.80932356      -0.00386163      -0.01254615      -0.01240991
Cu       7.31056463       7.23763990       0.00000000      -0.01257160      -0.01244595      -0.00360324
Cu       9.13819756       9.04704173       0.00000000       0.01258433       0.01245905       0.00364360
Cu       7.34684508       9.06500106       1.80932356      -0.00450473      -0.00423504      -0.00443392
Cu       9.13819767       7.25559922       1.80932356      -0.00427852      -0.00446216      -0.00442931
Cu       0.03628045       0.03591854       3.61863626       0.00224740       0.00222414      -0.00071432
Cu       1.86392435       1.84533123       3.61863626      -0.00451977      -0.00446583      -0.00418281
Cu       0.07256101       1.86329056       5.42795982      -0.00226568       0.00068754      -0.00222526
Cu       1.86392435       0.05387787       5.42795982       0.00065520      -0.00226753      -0.00222529
Cu       3.65527683       0.03591854       3.61863626       0.01258641       0.00374419       0.01242138
Cu       5.48292073       1.84533123       3.61863626       0.00001236      -0.00928483       0.00941117
Cu       3.69155739       1.86329056       5.42795982       0.00932125      -0.00937662       0.00002206
Cu       5.48292073       0.05387787       5.42795982       0.00001027       0.00002194       0.00000704
Cu       7.27428407       0.03591854       3.61863626      -0.00929798       0.00009513       0.00939001
Cu       9.10191711       1.84533123       3.61863626       0.00450307       0.00422885       0.00442952
Cu       7.31056463       1.86329056       5.42795982      -0.01259438      -0.01244265      -0.00361985
Cu       9.10191711       0.05387787       5.42795982      -0.00066489       0.00226811       0.00223602
Cu       0.07256090       3.65473307       3.61863626       0.00386762       0.01255155       0.01242316
Cu       1.90020480       5.46414575       3.61863626      -0.00929490       0.00010074       0.00940410
Cu       0.10884146       5.48210508       5.42795982       0.00000953      -0.00000198       0.00000884
Cu       1.90020480       3.67269239       5.42795982      -0.00928262       0.00940810       0.00002044
Cu       3.69155728       3.65473307       3.61863626       0.00161187       0.00159113       0.00158030
Cu       5.51920118       5.46414575       3.61863626       0.00226247       0.00223066      -0.00068306
Cu       3.72783784       5.48210508       5.42795982      -0.00064858       0.00225553       0.00224695
Cu       5.51920118       3.67269239       5.42795982       0.00225746      -0.00067523       0.00224550
Cu       7.31056452       3.65473307       3.61863626       0.00426336       0.00448371       0.00444218
Cu       9.13819756       5.46414575       3.61863626       0.01256450       0.00376397       0.01241214
Cu       7.34684508       5.48210508       5.42795982       0.00063887      -0.00227877      -0.00225267
Cu       9.13819756       3.67269239       5.42795982       0.01255875       0.01245531       0.00363826
Cu       0.10884146       7.27355844       3.61863626      -0.00000233      -0.00929907       0.00938612
Cu       1.93648525       9.08296028       3.61863626       0.00426649       0.00445789       0.00442433
Cu       0.14512191       9.10091960       5.42795982       0.00226358      -0.00068597       0.00223944
Cu       1.93648536       7.29151777       5.42795982      -0.01257877      -0.01246488      -0.00362441
Cu       3.72783784       7.27355844       3.61863626       0.00452281       0.00421939       0.00443902
Cu       5.55548163       9.08296028       3.61863626       0.00389441       0.01252500       0.01241351
Cu       3.76411829       9.10091960       5.42795982       0.01258352       0.01244474       0.00363469
Cu       5.55548174       7.29151777       5.42795982      -0.00225878       0.00065330      -0.00225140
Cu       7.34684508       7.27355844       3.61863626      -0.00451842      -0.00448384      -0.00419841
Cu       9.17447801       9.08296028       3.61863626       0.00158643       0.00156950       0.00153721
Cu       7.38312553       9.10091960       5.42795982      -0.00930739       0.00940013      -0.00001241
Cu       9.17447812       7.29151777       5.42795982       0.00930242      -0.00939801      -0.00001683
Cu       0.07256101       0.07183720       7.23728338      -0.00225830      -0.00223153       0.00072072
Cu       1.90020491       1.88124988       7.23728338      -0.00158351      -0.00156768      -0.00154703
Cu       0.10884146       1.89920910       9.04659608      -0.00000164      -0.00931143       0.00940216
Cu       1.90020480       0.08979641       9.04659608      -0.00930647       0.00009929       0.00940139
Cu       3.69155739       0.07183720       7.23728338       0.00930172      -0.00008096      -0.00938364
Cu       5.51920129       1.88124988       7.23728338      -0.00387835      -0.01253353      -0.01241895
Cu       3.72783784       1.89920910       9.04659608       0.00451644       0.00422295       0.00441457
Cu       5.51920118       0.08979641       9.04659608       0.00225185       0.00224205      -0.00069890
Cu       7.31056463       0.07183720       7.23728338      -0.01258413      -0.00373027      -0.01241117
Cu       9.13819767       1.88124988       7.23728338      -0.00428245      -0.00447186      -0.00442221
Cu       7.34684508       1.89920910       9.04659608      -0.00451476      -0.00447941      -0.00419335
Cu       9.13819756       0.08979641       9.04659608       0.01258871       0.00376443       0.01243280
Cu       0.10884146       3.69065172       7.23728338       0.00000838       0.00930392      -0.00939046
Cu       1.93648536       5.50006441       7.23728338      -0.01257042      -0.00375732      -0.01242114
Cu       0.14512191       5.51802362       9.04659608       0.00226346       0.00223378      -0.00069888
Cu       1.93648525       3.70861094       9.04659608       0.00426840       0.00447060       0.00442400
Cu       3.72783784       3.69065172       7.23728338       0.00452254       0.00447316       0.00417736
Cu       5.55548174       5.50006441       7.23728338      -0.00226837      -0.00224695       0.00067633
Cu       3.76411829       5.51802362       9.04659608       0.01257308       0.00375046       0.01240581
Cu       5.55548163       3.70861094       9.04659608       0.00387373       0.01253348       0.01239777
Cu       7.34684508       3.69065172       7.23728338      -0.00452857      -0.00423975      -0.00444723
Cu       9.17447812       5.50006441       7.23728338       0.00930664      -0.00010593      -0.00939879
Cu       7.38312553       5.51802362       9.04659608      -0.00930220       0.00008270       0.00939715
Cu       9.17447801       3.70861094       9.04659608       0.00160539       0.00156518       0.00155772
Cu       0.14512202       7.30947709       7.23728338      -0.00386032      -0.01254601      -0.01241568
Cu       1.97276581       9.11887893       7.23728338      -0.00451051      -0.00423198      -0.00441807
Cu       0.18140236       9.13683815       9.04659608       0.00388332       0.01255048       0.01243961
Cu       1.97276581       7.32743631       9.04659608      -0.00452104      -0.00447249      -0.00418794
Cu       3.76411840       7.30947709       7.23728338      -0.00428052      -0.00448496      -0.00443474
Cu       5.59176219       9.11887893       7.23728338      -0.00000782       0.00930757      -0.00938835
Cu       3.80039874       9.13683815       9.04659608       0.00158184       0.00158431       0.00156419
Cu       5.59176219       7.32743631       9.04659608      -0.00001128      -0.00930221       0.00940114
Cu       7.38312564       7.30947709       7.23728338      -0.00160035      -0.00158578      -0.00156450
Cu       9.21075857       9.11887893       7.23728338       0.00451949       0.00448196       0.00419021
Cu       7.41940598       9.13683815       9.04659608       0.00427438       0.00448879       0.00444581
Cu       9.21075857       7.32743631       9.04659608       0.00452909       0.00422255       0.00444565
108
Lattice="10.857 0.0 0.0 0.10884146 10.85645442 0.0 0.10884146 0.10775574 10.85591964" Properties=species:S:1:pos:R:3:forces:R:3 energy=-405.14980141 stress="-0.0006699180640047448 0.005367397775225357 0.005302170110158182 0.005367397775225357 -0.0007615956968531493 0.005232419704023683 0.005302170110158182 0.005232419704023683 -0.0008685383882990188" free_energy=-405.15428641 pbc="T T T"
Cu      10.96234895       0.11108394      10.85582595       0.02130471      -0.02729659       0.01778581
Cu       1.82159902       1.81284085       0.00088758       0.02943178      -0.04422197      -0.02003416
Cu      10.88819082       1.83496331       1.80884470      -0.01003585      -0.07143007      -0.01512210
Cu       1.93235274      10.87185522       1.80864702      -0.02522862       0.02345852      -0.00071131
Cu       3.72412102      10.85534512       0.00518587       0.01823710       0.02005049      -0.02653147
Cu       5.56243923       1.91129115      10.85367431      -0.06767978       0.03465577       0.03764275
Cu       3.64975833       1.82706697       1.80732444       0.04531353       0.00390223      -0.01413294
Cu       5.45449966       0.02104356       1.80341946      -0.06820165      -0.00218581       0.03285814
Cu       7.45687082      10.95839941      10.84965871       0.01575232       0.01886992       0.02517074
Cu       9.16994531       1.91357201      10.85357867       0.02501090       0.01819290       0.04878075
Cu       7.27326562       1.82404534       1.81023839       0.00406715       0.03440530      -0.00425854
Cu       9.16762874      10.86849162       1.81283045       0.05485981       0.02217626      -0.02633580
Cu       0.14707736       3.72093923      10.85537185      -0.03825919       0.06753981       0.01022187
Cu       1.86253568       5.42942627       0.00119990       0.01344005      -0.02287413      -0.00088585
Cu       0.07298953       5.44362651       1.81748645       0.01247512       0.01645496      -0.08065916
Cu       1.86331037       3.62930767       1.80748891       0.01299353       0.06312968       0.00638419
Cu       3.76803558       3.72922054      10.85284622      -0.02362053      -0.01909133       0.01643766
Cu       5.48591970       5.42075455       0.00208390      -0.02177173       0.05309373      -0.03041801
Cu       3.69694138       5.44354558       1.80574588      -0.04316307       0.03421247       0.00035508
Cu       5.47766649       3.64218776       1.81340473       0.04856348      -0.05227502      -0.04197278
Cu       7.38215580       3.71800840      10.85453920       0.00413857       0.06229043       0.03315082
Cu       9.20902852       5.53958883      10.85499157       0.03034857      -0.05236376       0.01110862
Cu       7.31445764       5.44925477       1.80908158      -0.03423831      -0.02960558       0.00617599
Cu       9.09848719       3.64021056       1.81435365       0.00835049      -0.01098438      -0.07162570
Cu       0.07482713       7.23722064       0.00099722      -0.02564341       0.00300398       0.01287564
Cu       1.89742695       9.05112422       0.00625876      -0.01520675      -0.01300678      -0.03322592
Cu       0.11025933       9.06343632       1.82368453      -0.03507356       0.02453945      -0.10180637
Cu       1.90398274       7.25528249       1.81405381      -0.01389915      -0.02981938      -0.04316356
Cu       3.80361944       7.35182752      10.85235152      -0.00071656      -0.04669793       0.00971342
Cu       5.63191827       9.16225546      10.85205146      -0.02940882      -0.05370292       0.02362897
Cu       3.72587733       9.06225051       1.80726093       0.03385949       0.01219419       0.00549142
Cu       5.52166106       7.25468226       1.80465019      -0.02708329      -0.00194519       0.00418333
Cu       7.31208746       7.22819397       0.00413958      -0.03342425       0.08618200      -0.05084839
Cu       9.13800001       9.04777957       0.00244247       0.00736329      -0.00843273      -0.02200926
Cu       7.33928651       9.06849897       1.81552175       0.04765702      -0.04079178      -0.05785411
Cu       9.13379005       7.25631197       1.80795810       0.03625580       0.00201978      -0.00636736
Cu      10.88889851       0.03980887       3.61565305       0.02187711      -0.01604886       0.02982044
Cu       1.86174893       1.84707456       3.61528938       0.02288425      -0.00673900       0.03116869
Cu       0.07602411       1.86833443       5.42458710      -0.00584912      -0.05524166       0.02438634
Cu       1.97302518      10.90773239       5.42872571      -0.00817793       0.01162436      -0.04516044
Cu       3.76282122      10.89100231       3.60581477       0.01265171      -0.00616799       0.07040227
Cu       5.47893783       1.84998208       3.62168156       0.02346225      -0.04495604      -0.03541366
Cu       3.69579671       1.86513782       5.42632296      -0.04401864      -0.03126070      -0.01450286
Cu       5.48236177       0.05751616       5.42556120       0.01715211      -0.02507447       0.00187338
Cu       7.27710424       0.03758917       3.61131145      -0.02218544       0.00558065       0.08589670
Cu       9.10226978       1.84900205       3.62060824      -0.01199114      -0.02595408       0.00075393
Cu       7.31351176       1.86583864       5.42609716      -0.00777109      -0.05119231       0.00982608
Cu       9.21541743      10.90930967       5.43077704      -0.01534745       0.02365390      -0.01415504
Cu      10.92340017       3.65052298       3.61450700       0.05554111       0.03941893       0.05790254
Cu       1.90120287       5.45881772       3.62124917      -0.01182960       0.00797860      -0.00800925
Cu      10.96243631       5.48742841       5.43002505       0.02624838      -0.03145404      -0.02262034
Cu       1.90302709       3.67592153       5.43108719      -0.01889096      -0.02545705      -0.03935717
Cu       3.70208772       3.66184507       3.62024913      -0.07537210      -0.03890006      -0.01344455
Cu       5.51948589       5.46955335       3.61907343       0.00905782       0.00346201       0.02306421
Cu       3.72320688       5.48177873       5.43355930       0.05856868       0.01384884      -0.04332082
Cu       5.52268994       3.66590607       5.42980185      -0.00868825       0.07623709      -0.03630343
Cu       7.30980401       3.65703922       3.61183611      -0.00241840       0.00768377       0.04626281
Cu       9.14615864       5.46244764       3.61420064      -0.05676003       0.03101405       0.07080923
Cu       7.34383961       5.47968799       5.43022263       0.04592548       0.00551938      -0.02735908
Cu       9.13907995       3.67113150       5.43230740      -0.02013442       0.03620119      -0.01563195
Cu       0.10980559       7.27544637       3.61667720       0.00406162      -0.05395011       0.03138400
Cu       1.93274865       9.07516032       3.61610694       0.02966775       0.06385242       0.03718813
Cu      11.00092893       9.09827530       5.42509451       0.03132729       0.02451447       0.03226107
Cu       1.93878325       7.29018687       5.42992811      -0.03230123      -0.00205181      -0.00560418
Cu       3.72138755       7.27424320       3.61655171       0.05980417      -0.01879001       0.02386955
Cu       5.55817180       9.08110679       3.61285451      -0.04090253       0.02436676       0.05817276
Cu       3.76265551       9.09933716       5.43151448       0.04067841       0.01741288      -0.05953473
Cu       5.55917192       7.28999747       5.43139789      -0.03252789       0.01399681      -0.04620176
Cu       7.35167854       7.28089253       3.61864777      -0.02660011      -0.07386124       0.02403225
Cu       9.17252369       9.07250871       3.62369479       0.01097112       0.06471093      -0.01771312
Cu       7.38576663       9.10345901       5.42732301      -0.03021058       0.01486135      -0.00137226
Cu       9.17948847       7.29268439       5.43085672      -0.03133716      -0.04235857      -0.00080292
Cu       0.18341508      10.92557483       7.24132308      -0.00167168       0.01057235      -0.03260747
Cu       1.90182990       1.87394284       7.23855178      -0.00489999       0.03629756      -0.02543926
Cu      10.96256434       1.90778308       9.04829015       0.03534787      -0.05383199      -0.01223132
Cu       1.90703825       0.09135761       9.04351582      -0.05996254       0.00387019       0.04561011
Cu       3.79846829      10.92514497       7.23029293       0.05206495       0.04190414       0.01900237
Cu       5.51935523       1.89072635       7.23741224      -0.00650264      -0.11646115       0.00464262
Cu       3.72754904       1.90239920       9.04790151       0.01473359      -0.03031562       0.00487364
Cu       5.51608829       0.09078812       9.04798173      -0.01243030       0.01860336      -0.04636339
Cu       7.42693803      10.92323371       7.24025942      -0.05132010       0.06979946      -0.02944011
Cu       9.14387910       1.88558458       7.24144337      -0.03766652      -0.02274955      -0.03072309
Cu       7.34261163       1.90079982       9.05236329       0.02566700      -0.02773484      -0.06581445
Cu       9.14469544       0.10018414       9.04914939      -0.02004165      -0.07348244      -0.00739077
Cu       0.11111525       3.69073621       7.22810948       0.00283938       0.01855103       0.04836529
Cu       1.93826493       5.50021961       7.23500440      -0.04455303       0.00561286       0.03099025
Cu      10.99653983       5.51442737       9.05292389       0.05520295       0.00493308      -0.04083891
Cu       1.93655757       3.70190505       9.03856129      -0.00434339       0.04941266       0.02946694
Cu       3.73192928       3.68968066       7.23223581      -0.02743000      -0.00763758       0.04221224
Cu       5.55230548       5.50173632       7.23285623       0.02805543      -0.01454985       0.04198380
Cu       3.76091760       5.51437923       9.04102971       0.03042065       0.01553152       0.04729390
Cu       5.55438492       3.70858584       9.05117728      -0.00331134       0.02588501      -0.00890449
Cu       7.33293361       3.68271911       7.24162455       0.09059229       0.05815803      -0.01434604
Cu       9.17538733       5.49617138       7.23909773      -0.01670394      -0.00004351      -0.01641487
Cu       7.38106141       5.52117268       9.04841510      -0.01361805      -0.03224797      -0.02116692
Cu       9.17297987       3.70638823       9.04453367      -0.01021657       0.02429913       0.01072413
Cu       0.14609853       7.31110728       7.24218114       0.01587725      -0.02768850      -0.01477633
Cu       1.97999582       9.11660773       7.23968710      -0.06593669       0.00493916      -0.01828491
Cu       0.18207616       9.13539740       9.04769134       0.00081962       0.02227110       0.01805297
Cu       1.97698158       7.32795504       9.05107013      -0.02557226      -0.01272909      -0.01305757
Cu       3.76674311       7.30951314       7.24035669      -0.00823775      -0.00330339      -0.01176889
Cu       5.59373499       9.11854913       7.23503273      -0.01069568       0.02951697      -0.01507015
Cu       3.79625793       9.14081005       9.04042362       0.02975690      -0.00652989       0.04712194
Cu       5.58941214       7.33126634       9.04755672       0.01032166      -0.03655356       0.01656669
Cu       7.38475128       7.31242474       7.23725125      -0.01189746      -0.02678660      -0.00481605
Cu       9.21015950       9.11666525       7.23664451       0.02243486       0.02134583       0.02812435
Cu       7.41011954       9.14248571       9.04234545       0.08817272      -0.04910972       0.02595504
Cu       9.20661123       7.32449636       9.04000969       0.00987122       0.04003337       0.05145608
108
Lattice="10.857 0.0 0.0 0.10884146 10.85645442 0.0 0.10884146 0.10775574 10.85591964" Properties=species:S:1:pos:R:3:forces:R:3 energy=-405.08750223 stress="-0.0009578093264360284 0.0053402145237444725 0.00528502691280814 0.0053402145237444725 -0.0010508541119263848 0.005214344711776236 0.00528502691280814 0.005214344711776236 -0.0011596410507302792" free_energy=-405.09198642 pbc="T T T"
Cu      10.95885969       0.11440815      10.85573498       0.03788338      -0.04846051       0.03550195
Cu       1.81555849       1.81626236       0.00177234       0.07566720      -0.08322766      -0.03972478
Cu      10.88309954       1.84254383       1.80836368      -0.01080068      -0.13458785      -0.01541152
Cu       1.92821624      10.86930039       1.80797037      -0.03332478       0.05286481       0.00570352
Cu       3.72040702      10.85423883       0.01036773       0.03388678       0.04120199      -0.05389058
Cu       5.56938652       1.90541924      10.85143484      -0.13471122       0.06859540       0.07085445
Cu       3.64424666       1.82676256       1.80532315       0.10074305       0.01284238      -0.02262929
Cu       5.46234867       0.02412740       1.79752046      -0.12546378       0.00063971       0.06555745
Cu       7.45805756      10.95259153      10.84340168       0.03130973       0.04110166       0.04889189
Cu       9.16541629       1.90997848      10.85124508       0.03805811       0.04712895       0.09259752
Cu       7.27224766       1.82072387       1.81115267       0.00739713       0.06553793      -0.00953300
Cu       9.16078772      10.86257293       1.81633333       0.11217468       0.04651548      -0.05800581
Cu       0.14902695       3.71531852      10.85482558      -0.07620881       0.13183039       0.02719498
Cu       1.86114903       5.43062197       0.00239981       0.02558038      -0.04470304      -0.00062983
Cu       0.07341991       5.44106908       1.82563718       0.03153911       0.03076465      -0.15902166
Cu       1.86269834       3.62185117       1.80565523       0.03066616       0.13514030       0.01939067
Cu       3.77194917       3.73186802      10.84977530      -0.06291163      -0.05044373       0.03544577
Cu       5.48891546       5.41328988       0.00416314      -0.03116280       0.09956739      -0.05495641
Cu       3.70231880       5.44090984       1.80216831      -0.09691740       0.06971288       0.00696397
Cu       5.47241971       3.64759390       1.81747950       0.10398086      -0.10991470      -0.07117044
Cu       7.38118665       3.70945615      10.85316376       0.02256384       0.12450983       0.06279826
Cu       9.20730319       5.54318669      10.85406534       0.05151672      -0.10027549       0.02802044
Cu       7.31834542       5.45231857       1.80884069      -0.06163906      -0.05566374       0.01977507
Cu       9.09505857       3.64364564       1.81937299       0.01428069      -0.03144451      -0.14484492
Cu       0.07708937       7.23680195       0.00199651      -0.04876494       0.01087764       0.02911793
Cu       1.89464676       9.05520492       0.01251264      -0.02305910      -0.03220332      -0.06724493
Cu       0.11167199       9.06187533       1.83803008      -0.06149304       0.03641669      -0.19445592
Cu       1.90775850       7.25496134       1.81877765      -0.02571684      -0.06178316      -0.08912386
Cu       3.80683997       7.35825236      10.84878502      -0.01182146      -0.08429641       0.02285306
Cu       5.63578940       9.16970534      10.84818708      -0.05800469      -0.10247648       0.04647472
Cu       3.72392184       9.05950193       1.80519918       0.06604380       0.02467641       0.00817957
Cu       5.52411659       7.25376508       1.79997759      -0.04926095       0.00492254       0.02065091
Cu       7.31360524       7.21876109       0.00827145      -0.05193143       0.18835252      -0.09508031
Cu       9.13780361       9.04851607       0.00488180       0.00440821      -0.02757514      -0.03867560
Cu       7.33173518       9.07199062       1.82171136       0.10255115      -0.06908281      -0.12311667
Cu       9.12938785       7.25702503       1.80659178       0.07872229       0.00500457      -0.01234089
Cu      10.88451996       0.04369686       3.61267441       0.04133850      -0.03203541       0.05834157
Cu       1.85957702       1.84881696       3.61194728       0.04852959      -0.01670638       0.06409696
Cu       0.07948629       1.87336987       5.42121819      -0.01402044      -0.10479204       0.05295790
Cu       1.97328341      10.90513427       5.42948475      -0.01675886       0.02004808      -0.08961809
Cu       3.76152610      10.88963078       3.59300413       0.01863091      -0.01645291       0.13657475
Cu       5.47495850       1.85462625       3.62472166       0.05705662      -0.08394154      -0.08021258
Cu       3.70002924       1.86698050       5.42468394      -0.09740611      -0.05212825      -0.02296938
Cu       5.48180550       0.06115066       5.42316302       0.03939848      -0.04923158      -0.00072915
Cu       7.27992096       0.03926079       3.60399977      -0.05222661       0.00476917       0.17093760
Cu       9.10262056       1.85266907       3.62258054      -0.02881706      -0.04984022      -0.00274988
Cu       7.31645774       1.86837893       5.42423602      -0.00038567      -0.08657845       0.02178692
Cu       9.22007392      10.90829062       5.43359220      -0.02975117       0.04604636      -0.03280957
Cu      10.91724784       3.64631885       3.61038663       0.10241602       0.06351943       0.10062281
Cu       1.90219921       5.45349098       3.62386089      -0.01845307       0.01783270      -0.03280612
Cu      10.95903510       5.49274705       5.43208691       0.05358075      -0.05498221      -0.04261767
Cu       1.90584646       3.67914670       5.43420870      -0.03002178      -0.05677423      -0.07180136
Cu       3.71260680       3.66895130       3.62186014      -0.14661318      -0.06310312      -0.01215074
Cu       5.51977193       5.47496142       3.61951407       0.02363139       0.00905049       0.03646752
Cu       3.71858488       5.48145459       5.43915216       0.11414065       0.03118699      -0.09140221
Cu       5.52617736       3.65913130       5.43163846      -0.01454261       0.15485248      -0.07483772
Cu       7.30904304       3.65934664       3.60504313      -0.01008589       0.00816354       0.09177319
Cu       9.15411096       5.46075429       3.60977577      -0.12941283       0.05924803       0.13357092