120
Lattice="15.9435 0.0 0.0 -6.3774 11.04598082 0.0 0.0 0.0 15.321408" Properties=species:S:1:pos:R:3:forces:R:3 energy=-180.45940604 stress="-0.002017417067530337 0.0006496335650437174 -5.161728047105455e-09 0.0006496335650437174 0.0009902217579531418 1.5947055816631725e-08 -5.161728047105455e-09 1.5947055816631725e-08 -0.0028641247727786093" free_energy=-180.4601403 pbc="T T T"
Mg       0.00000000       0.00000000       0.00000000       0.00038273      -0.00125432      -0.00000021
Mg       0.00000003       1.84099684       2.55356805      -0.00159641       0.00277914       0.00000809
Mg       3.18870000       0.00000000       0.00000000      -0.00102954      -0.00038611       0.00000069
Mg       3.18870003       1.84099684       2.55356805       0.00231070       0.00311703       0.00000738
Mg       6.37740000       0.00000000       0.00000000       0.00364493      -0.00495849       0.00000214
Mg       6.37740003       1.84099684       2.55356805      -0.00070131      -0.00054728       0.00000829
Mg       9.56610000       0.00000000       0.00000000      -0.00282874       0.00261174      -0.00000567
Mg       9.56610003       1.84099684       2.55356805      -0.00024508       0.00328607       0.00001023
Mg      12.75480000       0.00000000       0.00000000       0.00195954      -0.00190643      -0.00000108
Mg      12.75480003       1.84099684       2.55356805      -0.00005708       0.00080570       0.00000964
Mg      -1.59435000       2.76149521       0.00000000       0.00038158      -0.00125222      -0.00000292
Mg      -1.59434997       4.60249205       2.55356805      -0.00158920       0.00277751       0.00000821
Mg       1.59435000       2.76149521       0.00000000      -0.00102848      -0.00039597       0.00000374
Mg       1.59435003       4.60249205       2.55356805       0.00232055       0.00311622       0.00000433
Mg       4.78305000       2.76149521       0.00000000       0.00364266      -0.00495906      -0.00000240
Mg       4.78305003       4.60249205       2.55356805      -0.00069989      -0.00054735       0.00000644
Mg       7.97175000       2.76149521       0.00000000      -0.00283232       0.00261670      -0.00000251
Mg       7.97175003       4.60249205       2.55356805      -0.00024419       0.00328568       0.00000669
Mg      11.16045000       2.76149521       0.00000000       0.00196136      -0.00190332      -0.00000122
Mg      11.16045003       4.60249205       2.55356805      -0.00006313       0.00080816       0.00001000
Mg      -3.18870000       5.52299041       0.00000000       0.00037809      -0.00125293      -0.00000261
Mg      -3.18869997       7.36398725       2.55356805      -0.00160118       0.00277891       0.00000408
Mg       0.00000000       5.52299041       0.00000000      -0.00103040      -0.00039465      -0.00000388
Mg       0.00000003       7.36398725       2.55356805       0.00231483       0.00311679       0.00000360
Mg       3.18870000       5.52299041       0.00000000       0.00365371      -0.00496354      -0.00000132
Mg       3.18870003       7.36398725       2.55356805      -0.00069478      -0.00055209       0.00000633
Mg       6.37740000       5.52299041       0.00000000      -0.00282510       0.00261682      -0.00000101
Mg       6.37740003       7.36398725       2.55356805      -0.00023919       0.00328405       0.00000953
Mg       9.56610000       5.52299041       0.00000000       0.00195574      -0.00190065       0.00000116
Mg       9.56610003       7.36398725       2.55356805      -0.00006254       0.00080804       0.00001003
Mg      -4.78305000       8.28448562       0.00000000       0.00037702      -0.00124851       0.00000240
Mg      -4.78304997      10.12548246       2.55356805      -0.00159599       0.00277983       0.00000743
Mg      -1.59435000       8.28448562       0.00000000      -0.00103144      -0.00038786       0.00000046
Mg      -1.59434997      10.12548246       2.55356805       0.00230789       0.00312144       0.00000599
Mg       1.59435000       8.28448562       0.00000000       0.00364875      -0.00496711      -0.00000101
Mg       1.59435003      10.12548246       2.55356805      -0.00069862      -0.00054972       0.00000827
Mg       4.78305000       8.28448562       0.00000000      -0.00282724       0.00261229      -0.00000004
Mg       4.78305003      10.12548246       2.55356805      -0.00023904       0.00328180       0.00000719
Mg       7.97175000       8.28448562       0.00000000       0.00195704      -0.00190204       0.00000449
Mg       7.97175003      10.12548246       2.55356805      -0.00005370       0.00080779       0.00000862
Mg       0.00000000       0.00000000       5.10713595       0.00038281      -0.00125354       0.00000703
Mg       0.00000003       1.84099684       7.66070400      -0.00159213       0.00277200       0.00000156
Mg       3.18870000       0.00000000       5.10713595      -0.00103363      -0.00038791       0.00000907
Mg       3.18870003       1.84099684       7.66070400       0.00231459       0.00311936      -0.00000090
Mg       6.37740000       0.00000000       5.10713595       0.00364502      -0.00495989       0.00001309
Mg       6.37740003       1.84099684       7.66070400      -0.00069942      -0.00054648      -0.00000180
Mg       9.56610000       0.00000000       5.10713595      -0.00282804       0.00261269       0.00001342
Mg       9.56610003       1.84099684       7.66070400      -0.00024114       0.00328704       0.00000285
Mg      12.75480000       0.00000000       5.10713595       0.00196235      -0.00190577       0.00000814
Mg      12.75480003       1.84099684       7.66070400      -0.00005569       0.00080480       0.00000209
Mg      -1.59435000       2.76149521       5.10713595       0.00038138      -0.00125212       0.00001198
Mg      -1.59434997       4.60249205       7.66070400      -0.00159337       0.00277422       0.00000237
Mg       1.59435000       2.76149521       5.10713595      -0.00102758      -0.00039155       0.00000813
Mg       1.59435003       4.60249205       7.66070400       0.00231512       0.00311703      -0.00000021
Mg       4.78305000       2.76149521       5.10713595       0.00364977      -0.00495994       0.00000824
Mg       4.78305003       4.60249205       7.66070400      -0.00070082      -0.00054705       0.00000528
Mg       7.97175000       2.76149521       5.10713595      -0.00283248       0.00261939       0.00001030
Mg       7.97175003       4.60249205       7.66070400      -0.00024582       0.00329085       0.00000269
Mg      11.16045000       2.76149521       5.10713595       0.00195195      -0.00190329       0.00001141
Mg      11.16045003       4.60249205       7.66070400      -0.00006588       0.00080967      -0.00000073
Mg      -3.18870000       5.52299041       5.10713595       0.00037907      -0.00124819       0.00000952
Mg      -3.18869997       7.36398725       7.66070400      -0.00159356       0.00277720       0.00000394
Mg       0.00000000       5.52299041       5.10713595      -0.00102621      -0.00039113       0.00001022
Mg       0.00000003       7.36398725       7.66070400       0.00231424       0.00311625       0.00000559
Mg       3.18870000       5.52299041       5.10713595       0.00364988      -0.00496375       0.00001738
Mg       3.18870003       7.36398725       7.66070400      -0.00069743      -0.00055287       0.00000524
Mg       6.37740000       5.52299041       5.10713595      -0.00282937       0.00261258       0.00001313
Mg       6.37740003       7.36398725       7.66070400      -0.00024398       0.00328248       0.00000451
Mg       9.56610000       5.52299041       5.10713595       0.00195144      -0.00189818       0.00001001
Mg       9.56610003       7.36398725       7.66070400      -0.00006077       0.00081129      -0.00000032
Mg      -4.78305000       8.28448562       5.10713595       0.00037713      -0.00125344       0.00001055
Mg      -4.78304997      10.12548246       7.66070400      -0.00159865       0.00277677      -0.00000292
Mg      -1.59435000       8.28448562       5.10713595      -0.00103443      -0.00039075       0.00001012
Mg      -1.59434997      10.12548246       7.66070400       0.00231237       0.00311852       0.00000287
Mg       1.59435000       8.28448562       5.10713595       0.00364673      -0.00496563       0.00001192
Mg       1.59435003      10.12548246       7.66070400      -0.00069699      -0.00054799       0.00000154
Mg       4.78305000       8.28448562       5.10713595      -0.00282645       0.00261268       0.00001276
Mg       4.78305003      10.12548246       7.66070400      -0.00023929       0.00328306       0.00000599
Mg       7.97175000       8.28448562       5.10713595       0.00195557      -0.00190380       0.00001389
Mg       7.97175003      10.12548246       7.66070400      -0.00006428       0.00080165       0.00000348
Mg       0.00000000       0.00000000      10.21427205       0.00037522      -0.00124972      -0.00001378
Mg       0.00000003       1.84099684      12.76783995      -0.00159200       0.00277648      -0.00000885
Mg       3.18870000       0.00000000      10.21427205      -0.00103480      -0.00039105      -0.00000844
Mg       3.18870003       1.84099684      12.76783995       0.00231145       0.00312121      -0.00001093
Mg       6.37740000       0.00000000      10.21427205       0.00364523      -0.00496436      -0.00000545
Mg       6.37740003       1.84099684      12.76783995      -0.00070199      -0.00054818      -0.00000639
Mg       9.56610000       0.00000000      10.21427205      -0.00282721       0.00261465      -0.00000901
Mg       9.56610003       1.84099684      12.76783995      -0.00024049       0.00328073      -0.00000751
Mg      12.75480000       0.00000000      10.21427205       0.00196175      -0.00190487      -0.00001049
Mg      12.75480003       1.84099684      12.76783995      -0.00005954       0.00080500      -0.00001334
Mg      -1.59435000       2.76149521      10.21427205       0.00038308      -0.00125197      -0.00000886
Mg      -1.59434997       4.60249205      12.76783995      -0.00159011       0.00277416      -0.00001709
Mg       1.59435000       2.76149521      10.21427205      -0.00103111      -0.00039184      -0.00000661
Mg       1.59435003       4.60249205      12.76783995       0.00232011       0.00311642      -0.00000742
Mg       4.78305000       2.76149521      10.21427205       0.00364759      -0.00495443      -0.00000716
Mg       4.78305003       4.60249205      12.76783995      -0.00069828      -0.00054847      -0.00001118
Mg       7.97175000       2.76149521      10.21427205      -0.00282975       0.00261898      -0.00000911
Mg       7.97175003       4.60249205      12.76783995      -0.00024265       0.00328999      -0.00001071
Mg      11.16045000       2.76149521      10.21427205       0.00195753      -0.00190362      -0.00000650
Mg      11.16045003       4.60249205      12.76783995      -0.00006579       0.00080899      -0.00001084
Mg      -3.18870000       5.52299041      10.21427205       0.00037871      -0.00124670      -0.00000766
Mg      -3.18869997       7.36398725      12.76783995      -0.00159193       0.00277655      -0.00000513
Mg       0.00000000       5.52299041      10.21427205      -0.00102656      -0.00039508      -0.00001477
Mg       0.00000003       7.36398725      12.76783995       0.00231898       0.00311179      -0.00000466
Mg       3.18870000       5.52299041      10.21427205       0.00364759      -0.00495787      -0.00000923
Mg       3.18870003       7.36398725      12.76783995      -0.00069994      -0.00055096      -0.00000723
Mg       6.37740000       5.52299041      10.21427205      -0.00282613       0.00261940      -0.00001134
Mg       6.37740003       7.36398725      12.76783995      -0.00024543       0.00328674      -0.00001314
Mg       9.56610000       5.52299041      10.21427205       0.00195273      -0.00189548      -0.00000838
Mg       9.56610003       7.36398725      12.76783995      -0.00006190       0.00080815      -0.00000693
Mg      -4.78305000       8.28448562      10.21427205       0.00037924      -0.00124644      -0.00001032
Mg      -4.78304997      10.12548246      12.76783995      -0.00159715       0.00277894      -0.00000164
Mg      -1.59435000       8.28448562      10.21427205      -0.00102842      -0.00039242      -0.00001013
Mg      -1.59434997      10.12548246      12.76783995       0.00230950       0.00311933      -0.00000581
Mg       1.59435000       8.28448562      10.21427205       0.00364754      -0.00496749      -0.00000844
Mg       1.59435003      10.12548246      12.76783995      -0.00069918      -0.00055144      -0.00000790
Mg       4.78305000       8.28448562      10.21427205      -0.00282437       0.00261358      -0.00001168
Mg       4.78305003      10.12548246      12.76783995      -0.00024028       0.00328281      -0.00001416
Mg       7.97175000       8.28448562      10.21427205       0.00195816      -0.00190589      -0.00000926
Mg       7.97175003      10.12548246      12.76783995      -0.00005988       0.00080619      -0.00000694
120
Lattice="15.9435 0.0 0.0 -6.3774 11.04598082 0.0 0.0 0.0 15.321408" Properties=species:S:1:pos:R:3:forces:R:3 energy=-180.44195144 stress="-0.002011003623552563 0.0007017454226979069 9.712412350786937e-07 0.0007017454226979069 0.0008895038858377529 -1.622324259545206e-06 9.712412350786937e-07 -1.622324259545206e-06 -0.0028867621459178396" free_energy=-180.44267931 pbc="T T T"
Mg       9.56327025      11.04290385      15.32042651       0.01397210       0.01505317       0.00162245
Mg       0.01097343       1.83435854       2.55691746      -0.03933613       0.03582471       0.00303639
Mg       3.19061507       0.00402748      15.31659401      -0.00631276      -0.01215570       0.01453035
Mg       3.18779999       1.84070998       2.55822040       0.01195346       0.01223267      -0.00117107
Mg       0.00236413      11.03909663       0.00021511      -0.01134211       0.01626873      -0.00143673
Mg       6.37236106       1.84081215       2.55228320       0.01592717      -0.00610415       0.00456305
Mg       3.19499711      11.04386927       0.00422733      -0.02443075      -0.00152133       0.00581716
Mg       9.56286621       1.84119070       2.54947662       0.00418337      -0.00591110       0.00986818
Mg       6.37523420      11.04232990       0.00101137       0.01672856       0.00745736      -0.01404562
Mg      12.74944254       1.83753890       2.55536311       0.02670432       0.01813109      -0.00540663
Mg      14.35157730       2.75568215       0.00474948      -0.00026258       0.01284804       0.00312351
Mg      -1.59660961       4.60514993       2.54497152       0.00702792      -0.01354144       0.02385652
Mg       1.60012550       2.76283597       0.00480587      -0.02319846      -0.00076290      -0.02426277
Mg       1.59140485       4.60114653       2.54962003       0.01962731       0.00504896       0.01345201
Mg       4.77965244       2.76423737       0.01222909       0.01280381      -0.01585117      -0.04424872
Mg       4.79127882       4.60060948       2.55238294      -0.02675870       0.00941577      -0.00091118
Mg       7.97447978       2.75862170      15.31482362      -0.01539432       0.00719335       0.00827397
Mg       7.97742203       4.59682778       2.55331831      -0.01588978       0.02308477      -0.00503431
Mg      11.15986475       2.74939566       0.00664091       0.00838975       0.02540763      -0.02027587
Mg      11.16023186       4.60478254       2.55174986      -0.00310765      -0.01703162       0.00657305
Mg      12.74245240       5.51810643      15.32137108       0.04370738       0.00964545      -0.01000543
Mg      -3.19463235       7.35376442       2.55809323       0.01313530       0.04223966      -0.02404868
Mg       0.00576896       5.53456693       0.00598178      -0.02777091      -0.04426538      -0.02605375
Mg       0.00052661       7.36242955       2.55916619      -0.00567182       0.01289733      -0.01259560
Mg       3.18540486       5.53117813      15.31068347       0.01333467      -0.02758959       0.03790159
Mg       3.18963330       7.36370569       2.56325976      -0.01019456       0.00214976      -0.03489035
Mg       6.37488271       5.51956251      15.31208554       0.01978904       0.01432618       0.03002620
Mg       6.37151127       7.35627804       2.55314809       0.02699722       0.01697118      -0.00588470
Mg       9.57989502       5.52648690       0.00388873      -0.04859093      -0.01906550      -0.01289641
Mg       9.56490162       7.36616983       2.54227403      -0.00473031       0.00918337       0.03263782
Mg      -4.78494189       8.28792953      15.32082763       0.01094107      -0.00255114       0.01751968
Mg      -4.78205580      10.13452978       2.56304158       0.00474390      -0.03902958      -0.04129193
Mg      -1.59485611       8.27725724      15.31166006      -0.01526435       0.01099810       0.03517033
Mg      -1.59813496      10.12593589       2.55516469       0.00630167      -0.01407414      -0.01925381
Mg       1.58770842       8.28062946      15.31635699       0.02204665       0.00601062       0.03052919
Mg       1.58446117      10.12527932       2.54662025       0.02673548      -0.00452120       0.02289478
Mg       4.78234491       8.28611390       0.00154670      -0.00889013      -0.01304962       0.00027112
Mg       4.79312329      10.11990203       2.54739996      -0.03514457       0.00995018       0.03258202
Mg       7.96783619       8.28289831      15.31343857       0.00240430      -0.00081016       0.03024513
Mg       7.97275712      10.13646393       2.54841117       0.00378858      -0.03578349       0.00664101
Mg      -6.36946221      11.04225501       5.10380768      -0.02779733       0.01765701       0.01684331
Mg      -0.00455621       1.84155201       7.66319128       0.00578526      -0.01175762      -0.01126168
Mg       3.19842113       0.00000873       5.09820204      -0.01486405       0.00574826       0.03774989
Mg       3.18916909       1.85005565       7.65921292      -0.00240750      -0.02912039      -0.00235392
Mg       6.37304114       0.00272294       5.10868310       0.02036103      -0.00957841      -0.00359972
Mg       6.38210273       1.83488731       7.66798918      -0.01545817       0.02164075      -0.02864818
Mg       9.56139511       0.00945227       5.10456854       0.01382603      -0.02694763      -0.00831174
Mg       9.56625191       1.84690876       7.65882391       0.02402900      -0.01015501       0.00094831
Mg      12.75508025       0.00501576       5.09931743       0.01339870      -0.01378310       0.03099118
Mg      12.76015826       1.84390315       7.67217069      -0.01146625      -0.00941673      -0.02824443
Mg      -1.59708205       2.77771037       5.11450417       0.01253199      -0.04275885      -0.02619742
Mg      -1.58938688       4.59960650       7.66678905      -0.01034738       0.02190977      -0.02298019
Mg       1.59419353       2.75884483       5.11373687       0.00126235       0.00906531      -0.01796960
Mg       1.58411689       4.59744039       7.65769518       0.02632004       0.03773721       0.00726368
Mg       4.79215396       2.76578204       5.10998849      -0.00808724      -0.01095612      -0.00060764
Mg       4.78176397       4.60256009       7.65893974      -0.00128803       0.00518313       0.00662800
Mg       7.97981859       2.76832648       5.10807377      -0.02424241      -0.01160290      -0.00760810
Mg       7.97254019       4.59078110       7.66367038      -0.00869651       0.04695645      -0.01580442
Mg      11.17055540       2.75882495       5.09978688      -0.02315017       0.01082217       0.02344046
Mg      11.15746554       4.60274091       7.65624823       0.01130596      -0.00679233       0.00849579
Mg      12.74536623       5.52657483       5.10273258       0.03357849      -0.01003972       0.01772097
Mg      -3.18590673       7.35378640       7.66384719      -0.00419674       0.03519531      -0.01335620
Mg       0.00211194       5.52628808       5.10876094      -0.01264929      -0.00888202      -0.00568116
Mg      -0.00122398       7.37515065       7.65547925       0.00683969      -0.02283292       0.02940633
Mg       3.19106397       5.52753881       5.10345483      -0.01127234      -0.03021982       0.01158798
Mg       3.18695298       7.36691521       7.66482822       0.00134337      -0.00419720      -0.01032493
Mg       6.36787178       5.52969985       5.11197491       0.04172767      -0.01744604      -0.01226054
Mg       6.38096825       7.36751633       7.65770989      -0.00410923      -0.00992342       0.01115566
Mg       9.57219198       5.52238929       5.10838158      -0.02503175       0.00366784      -0.01704886
Mg       9.56699657       7.35827946       7.65053089      -0.00281669       0.00871873       0.02967464
Mg      -4.77792142       8.28532091       5.10879112      -0.00858430      -0.00428415      -0.01013322
Mg      -4.78682472      10.12930238       7.65511138       0.01895402      -0.00629113       0.01061107
Mg      -1.59174282       8.28207384       5.10945975      -0.01287663       0.00874991      -0.00617432
Mg      -1.59851629      10.12983921       7.66414534      -0.00219821      -0.00310467      -0.00425128
Mg       1.59488455       8.28551709       5.10789344       0.01005923       0.00734815       0.00058089
Mg       1.59608650      10.13706185       7.65869169      -0.00119763      -0.02612561       0.00917675
Mg       4.78548827       8.28059710       5.11625908      -0.01038275       0.04029875      -0.01488241
Mg       4.78872496      10.13305503       7.66481090      -0.01449852      -0.00040774      -0.01571444
Mg       7.97343580       8.28516616       5.10227339       0.00302000      -0.00211533      -0.01291505
Mg       7.97347920      10.11203132       7.65810687      -0.00085240       0.04326482       0.00544487
Mg       0.00399997       0.00934258      10.21271984      -0.01138113      -0.03148820       0.00794082
Mg      -0.01829682       1.84814072      12.76563336       0.06283451      -0.02729884       0.01130661
Mg      -3.19262054      11.04354386      10.21813979      -0.00256100       0.00263150      -0.00752156
Mg       3.18310517       1.84234301      12.76270881      -0.00159116       0.00022923       0.01786081
Mg       6.37585412       0.01069527      10.21555384       0.01017240      -0.05301600       0.01115824
Mg       6.36903378       1.83664207      12.76230080       0.01005314       0.01218342       0.02056130
Mg       9.55898177       0.00303201      10.21551523       0.01385526      -0.00927306       0.00201314
Mg       9.56609627       1.83155573      12.76960635      -0.00250779       0.02635859      -0.00960907
Mg      12.75311037       0.00174405      10.21747361       0.01160822      -0.00863893       0.00340975
Mg      12.75925876       1.84220781      12.76674830      -0.02582921      -0.01153999       0.01196895
Mg      -1.59205774       2.76389925      10.21717515      -0.00206604      -0.01364267      -0.00922197
Mg      -1.59757649       4.59146517      12.76923757      -0.00953252       0.05290225       0.01876836
Mg       1.59880069       2.76970281      10.21061529      -0.01863475      -0.02411527       0.00603205
Mg       1.59487225       4.60241185      12.76163554       0.00245256      -0.00556963       0.02443781
Mg       4.77641776       2.75518309      10.20772491       0.02620146       0.03063322       0.02104493
Mg       4.79127752       4.60977300      12.77119794      -0.02394053      -0.02156292      -0.02835361
Mg       7.97719238       2.76667345      10.20570187      -0.01990803      -0.00928991       0.03874025
Mg       7.96844823       4.60047019      12.76900514       0.01698593       0.00163979      -0.00473015
Mg      11.16187299       2.76794683      10.21785420      -0.00211751      -0.02131204      -0.00343117
Mg      11.15658182       4.60042976      12.77425272       0.00520632       0.00130386      -0.01836038
Mg      -3.17985407       5.51495115      10.20114268      -0.02839885       0.01896891       0.05442105
Mg      -3.19663329       7.36679459      12.76654851       0.01645605      -0.03260423      -0.01037079
Mg      -0.00272714       5.51979923      10.22571745       0.00826974       0.01366433      -0.03999052
Mg       0.00352412       7.36154344      12.76413569      -0.01987140      -0.00081156       0.00546172
Mg       3.19101634       5.52187245      10.21201306       0.00823137      -0.00629081       0.00119667
Mg       3.17964581       7.36277065      12.77258438       0.03286869       0.00280851      -0.02061273
Mg       6.38335381       5.53134968      10.20907166      -0.02136173      -0.02707480       0.01106106
Mg       6.38021192       7.37135282      12.76905340      -0.02111564      -0.01233760      -0.00585474
Mg       9.56426548       5.52182241      10.21894263       0.02041439       0.01049693      -0.01352396
Mg       9.55870780       7.36382907      12.77107261       0.01891022      -0.01407488      -0.01333681
Mg      -4.78008454       8.28284010      10.20596632      -0.01403577      -0.00228504       0.01355554
Mg      -4.79184141      10.10906017      12.77549468       0.01128196       0.05688485      -0.02855995
Mg      -1.59151269       8.28480595      10.21757274      -0.00415756      -0.00078695      -0.01138437
Mg      -1.59673295      10.12075820      12.76837436       0.00479401       0.01435664      -0.00357622
Mg       1.59979101       8.27311190      10.21488123      -0.01277230       0.04179610      -0.00183616
Mg       1.59648678      10.12191239      12.78213896      -0.01713298       0.00557397      -0.04810558
Mg       4.78994974       8.28325808      10.21311544      -0.02364966       0.01447981       0.01097479
Mg       4.77777576      10.12432097      12.77527221       0.01924148       0.00234585      -0.02428877
Mg       7.97025536       8.28176101      10.21876153       0.02490967       0.01493726      -0.02271821
Mg       7.97548467      10.12091627      12.76873089      -0.01849028       0.02378427      -0.00999267
120
Lattice="15.9435 0.0 0.0 -6.3774 11.04598082 0.0 0.0 0.0 15.321408" Properties=species:S:1:pos:R:3:forces:R:3 energy=-180.39012823 stress="-0.0020136669379116684 0.0007464474917895396 2.202478774305181e-06 0.0007464474917895396 0.0008036150592168222 6.519324938585448e-06 2.202478774305181e-06 6.519324938585448e-06 -0.002953888840068637" free_energy=-180.39083486 pbc="T T T"
Mg       9.56044602      11.03983252      15.31944579       0.02766248       0.02763267       0.00205422
Mg       0.02193124       1.82773426       2.56026826      -0.07375184       0.06503312       0.00652529
Mg       3.19252743       0.00804998      15.31178585      -0.01095788      -0.02300716       0.02537904
Mg       3.18690476       1.84042775       2.56287244       0.02130875       0.02443755       0.00071948
Mg       0.00472384      11.03221874       0.00042961      -0.02888274       0.04172109      -0.00283441
Mg       6.36732849       1.84062492       2.55100034       0.03570884      -0.01056478       0.00909729
Mg       3.20128430      11.04175695       0.00845696      -0.04194133      -0.00887315       0.00847714
Mg       9.55963395       1.84138212       2.54538933       0.00653966      -0.01854015       0.01995314
Mg       6.37307517      11.03868164       0.00201722       0.02940190       0.01368387      -0.02904085
Mg      12.74409569       1.83408791       2.55715602       0.05018560       0.03508723      -0.01233475
Mg      14.35400451       2.74987395       0.00950035       0.00139956       0.02771064       0.01165919
Mg      -1.59886644       4.60780240       2.53638448       0.01072111      -0.03090036       0.04664111
Mg       1.60589175       2.76417618       0.00960223      -0.04289884      -0.00228423      -0.04762970
Mg       1.58846736       4.59980290       2.54567737       0.03225458       0.00702573       0.02900019
Mg       4.77625985       2.76697313       0.02444071       0.02108273      -0.01989423      -0.08697668
Mg       4.79949706       4.59873056       2.55119752      -0.05286294       0.01635469      -0.00433892
Mg       7.97720319       2.75575096      15.30824262      -0.02653330       0.00551690       0.01627576
Mg       7.98308790       4.59117246       2.55306658      -0.03273504       0.04488980      -0.00977170
Mg      11.15928274       2.73730594       0.01327386       0.01295632       0.04513897      -0.03879390
Mg      11.16001238       4.60706619       2.54993443      -0.00732715      -0.03474696       0.01317049
Mg      12.73012198       5.51322609      15.32133001       0.08761718       0.00943518      -0.01986667
Mg      -3.20055948       7.34355815       2.56260891       0.02539986       0.08046863      -0.04777846
Mg       0.01152699       5.54612566       0.01195330      -0.05303178      -0.08146886      -0.05247588
Mg       0.00105096       7.36087681       2.56475957      -0.01322430       0.02211350      -0.02407401
Mg       3.18211498       5.53935481      15.29997412       0.02657157      -0.04337523       0.07469967
Mg       3.19056262       7.36342490       2.57293768      -0.01635132       0.00854556      -0.06316981
Mg       6.37237324       5.51614013      15.30277502       0.04094557       0.02144878       0.05901306
Mg       6.36563309       7.34857535       2.55272583       0.04946466       0.03256232      -0.01055422
Mg       9.59367074       5.52997567       0.00777255      -0.10292023      -0.03355945      -0.02620372
Mg       9.56370140       7.36835583       2.53099288      -0.01272887       0.01548066       0.06759722
Mg      -4.78682947       8.29137234      15.32025430       0.02000888      -0.00087253       0.03651433
Mg      -4.78105996      10.14356152       2.57249888       0.00748447      -0.07288948      -0.07356622
Mg      -1.59536841       8.27003294      15.30192606      -0.02573232       0.01975328       0.07198899
Mg      -1.60191742      10.12638359       2.55675398       0.00735974      -0.03246095      -0.03980044