120
Lattice="15.9435 0.0 0.0 -6.3774 11.04598082 0.0 0.0 0.0 15.3984" Properties=species:S:1:pos:R:3:forces:R:3 energy=-180.53392783 stress="-0.0012128841881550443 0.0003667004451148711 -5.261592193119587e-09 0.0003667004451148711 0.0017517815411627808 1.645885956495415e-08 -5.261592193119587e-09 1.645885956495415e-08 -0.0008507039375717747" free_energy=-180.53300763 pbc="T T T"
Mg       0.00000000       0.00000000       0.00000000       0.00007065      -0.00129174       0.00000386
Mg       0.00000003       1.84099684       2.56640005      -0.00114822       0.00354381       0.00000803
Mg       3.18870000       0.00000000       0.00000000      -0.00093223       0.00007933       0.00000312
Mg       3.18870003       1.84099684       2.56640005       0.00371533       0.00218715       0.00000818
Mg       6.37740000       0.00000000       0.00000000       0.00268203      -0.00565708       0.00000294
Mg       6.37740003       1.84099684       2.56640005      -0.00178980       0.00102147       0.00000833
Mg       9.56610000       0.00000000       0.00000000      -0.00248873       0.00325329       0.00000330
Mg       9.56610003       1.84099684       2.56640005      -0.00004357       0.00341243       0.00000760
Mg      12.75480000       0.00000000       0.00000000       0.00131228      -0.00239737       0.00000350
Mg      12.75480003       1.84099684       2.56640005       0.00165091      -0.00011200       0.00000890
Mg      -1.59435000       2.76149521       0.00000000       0.00007113      -0.00129082       0.00000368
Mg      -1.59434997       4.60249205       2.56640005      -0.00114909       0.00354278       0.00000799
Mg       1.59435000       2.76149521       0.00000000      -0.00093158       0.00007893       0.00000224
Mg       1.59435003       4.60249205       2.56640005       0.00371448       0.00218730       0.00000923
Mg       4.78305000       2.76149521       0.00000000       0.00268197      -0.00565705       0.00000321
Mg       4.78305003       4.60249205       2.56640005      -0.00179025       0.00102028       0.00000977
Mg       7.97175000       2.76149521       0.00000000      -0.00248989       0.00325201       0.00000292
Mg       7.97175003       4.60249205       2.56640005      -0.00004302       0.00341250       0.00000688
Mg      11.16045000       2.76149521       0.00000000       0.00131243      -0.00239677       0.00000334
Mg      11.16045003       4.60249205       2.56640005       0.00164997      -0.00011014       0.00000846
Mg      -3.18870000       5.52299041       0.00000000       0.00007154      -0.00129132       0.00000457
Mg      -3.18869997       7.36398725       2.56640005      -0.00115026       0.00354272       0.00000844
Mg       0.00000000       5.52299041       0.00000000      -0.00093148       0.00007771       0.00000279
Mg       0.00000003       7.36398725       2.56640005       0.00371555       0.00218769       0.00000915
Mg       3.18870000       5.52299041       0.00000000       0.00268128      -0.00565786       0.00000283
Mg       3.18870003       7.36398725       2.56640005      -0.00178887       0.00102029       0.00000878
Mg       6.37740000       5.52299041       0.00000000      -0.00248832       0.00325192       0.00000324
Mg       6.37740003       7.36398725       2.56640005      -0.00004048       0.00341292       0.00000760
Mg       9.56610000       5.52299041       0.00000000       0.00131081      -0.00239755       0.00000367
Mg       9.56610003       7.36398725       2.56640005       0.00165064      -0.00011105       0.00000884
Mg      -4.78305000       8.28448562       0.00000000       0.00007142      -0.00129166       0.00000358
Mg      -4.78304997      10.12548246       2.56640005      -0.00114970       0.00354265       0.00000795
Mg      -1.59435000       8.28448562       0.00000000      -0.00093213       0.00007924       0.00000393
Mg      -1.59434997      10.12548246       2.56640005       0.00371473       0.00218686       0.00000929
Mg       1.59435000       8.28448562       0.00000000       0.00268151      -0.00565792       0.00000350
Mg       1.59435003      10.12548246       2.56640005      -0.00179006       0.00101923       0.00000696
Mg       4.78305000       8.28448562       0.00000000      -0.00248849       0.00325350       0.00000227
Mg       4.78305003      10.12548246       2.56640005      -0.00004269       0.00341244       0.00000748
Mg       7.97175000       8.28448562       0.00000000       0.00131218      -0.00239746       0.00000326
Mg       7.97175003      10.12548246       2.56640005       0.00165037      -0.00011180       0.00000922
Mg       0.00000000       0.00000000       5.13279995       0.00007244      -0.00129050       0.00000435
Mg       0.00000003       1.84099684       7.69920000      -0.00114948       0.00354351      -0.00000453
Mg       3.18870000       0.00000000       5.13279995      -0.00093173       0.00007963       0.00000422
Mg       3.18870003       1.84099684       7.69920000       0.00371510       0.00218626      -0.00000407
Mg       6.37740000       0.00000000       5.13279995       0.00268099      -0.00565709       0.00000603
Mg       6.37740003       1.84099684       7.69920000      -0.00179013       0.00102072      -0.00000244
Mg       9.56610000       0.00000000       5.13279995      -0.00249068       0.00325303       0.00000327
Mg       9.56610003       1.84099684       7.69920000      -0.00004247       0.00341213      -0.00000315
Mg      12.75480000       0.00000000       5.13279995       0.00131074      -0.00239712       0.00000309
Mg      12.75480003       1.84099684       7.69920000       0.00165066      -0.00011057      -0.00000281
Mg      -1.59435000       2.76149521       5.13279995       0.00007251      -0.00128986       0.00000348
Mg      -1.59434997       4.60249205       7.69920000      -0.00114872       0.00354370      -0.00000335
Mg       1.59435000       2.76149521       5.13279995      -0.00092983       0.00007959       0.00000382
Mg       1.59435003       4.60249205       7.69920000       0.00371589       0.00218702      -0.00000506
Mg       4.78305000       2.76149521       5.13279995       0.00268160      -0.00565613       0.00000528
Mg       4.78305003       4.60249205       7.69920000      -0.00179022       0.00101903      -0.00000350
Mg       7.97175000       2.76149521       5.13279995      -0.00248878       0.00325297       0.00000481
Mg       7.97175003       4.60249205       7.69920000      -0.00004264       0.00341176      -0.00000231
Mg      11.16045000       2.76149521       5.13279995       0.00131006      -0.00239693       0.00000307
Mg      11.16045003       4.60249205       7.69920000       0.00165158      -0.00011161      -0.00000210
Mg      -3.18870000       5.52299041       5.13279995       0.00007321      -0.00129049       0.00000428
Mg      -3.18869997       7.36398725       7.69920000      -0.00114958       0.00354301      -0.00000317
Mg       0.00000000       5.52299041       5.13279995      -0.00093079       0.00007900       0.00000494
Mg       0.00000003       7.36398725       7.69920000       0.00371489       0.00218642      -0.00000422
Mg       3.18870000       5.52299041       5.13279995       0.00268127      -0.00565582       0.00000629
Mg       3.18870003       7.36398725       7.69920000      -0.00178969       0.00101971      -0.00000241
Mg       6.37740000       5.52299041       5.13279995      -0.00249018       0.00325324       0.00000327
Mg       6.37740003       7.36398725       7.69920000      -0.00004196       0.00341063      -0.00000253
Mg       9.56610000       5.52299041       5.13279995       0.00131297      -0.00239597       0.00000371
Mg       9.56610003       7.36398725       7.69920000       0.00165205      -0.00011191      -0.00000313
Mg      -4.78305000       8.28448562       5.13279995       0.00007214      -0.00129080       0.00000432
Mg      -4.78304997      10.12548246       7.69920000      -0.00115018       0.00354282      -0.00000382
Mg      -1.59435000       8.28448562       5.13279995      -0.00093154       0.00007965       0.00000543
Mg      -1.59434997      10.12548246       7.69920000       0.00371494       0.00218718      -0.00000383
Mg       1.59435000       8.28448562       5.13279995       0.00268181      -0.00565692       0.00000568
Mg       1.59435003      10.12548246       7.69920000      -0.00179101       0.00101987      -0.00000253
Mg       4.78305000       8.28448562       5.13279995      -0.00249039       0.00325332       0.00000422
Mg       4.78305003      10.12548246       7.69920000      -0.00004193       0.00341244      -0.00000378
Mg       7.97175000       8.28448562       5.13279995       0.00131275      -0.00239668       0.00000357
Mg       7.97175003      10.12548246       7.69920000       0.00165122      -0.00011158      -0.00000323
Mg       0.00000000       0.00000000      10.26560005       0.00007245      -0.00129017      -0.00000878
Mg       0.00000003       1.84099684      12.83199995      -0.00115050       0.00354322      -0.00000458
Mg       3.18870000       0.00000000      10.26560005      -0.00093235       0.00007972      -0.00000984
Mg       3.18870003       1.84099684      12.83199995       0.00371609       0.00218775      -0.00000391
Mg       6.37740000       0.00000000      10.26560005       0.00268243      -0.00565702      -0.00000850
Mg       6.37740003       1.84099684      12.83199995      -0.00179005       0.00102212      -0.00000520
Mg       9.56610000       0.00000000      10.26560005      -0.00248856       0.00325400      -0.00000737
Mg       9.56610003       1.84099684      12.83199995      -0.00004230       0.00341270      -0.00000499
Mg      12.75480000       0.00000000      10.26560005       0.00131227      -0.00239717      -0.00000734
Mg      12.75480003       1.84099684      12.83199995       0.00164943      -0.00011266      -0.00000467
Mg      -1.59435000       2.76149521      10.26560005       0.00007273      -0.00129022      -0.00000823
Mg      -1.59434997       4.60249205      12.83199995      -0.00114989       0.00354245      -0.00000377
Mg       1.59435000       2.76149521      10.26560005      -0.00093210       0.00007932      -0.00000990
Mg       1.59435003       4.60249205      12.83199995       0.00371510       0.00218637      -0.00000458
Mg       4.78305000       2.76149521      10.26560005       0.00268281      -0.00565714      -0.00000865
Mg       4.78305003       4.60249205      12.83199995      -0.00178878       0.00102254      -0.00000445
Mg       7.97175000       2.76149521      10.26560005      -0.00248964       0.00325292      -0.00000818
Mg       7.97175003       4.60249205      12.83199995      -0.00004304       0.00341186      -0.00000367
Mg      11.16045000       2.76149521      10.26560005       0.00131124      -0.00239684      -0.00000776
Mg      11.16045003       4.60249205      12.83199995       0.00165052      -0.00010994      -0.00000441
Mg      -3.18870000       5.52299041      10.26560005       0.00007193      -0.00129021      -0.00000753
Mg      -3.18869997       7.36398725      12.83199995      -0.00114935       0.00354341      -0.00000472
Mg       0.00000000       5.52299041      10.26560005      -0.00093184       0.00007794      -0.00000865
Mg       0.00000003       7.36398725      12.83199995       0.00371632       0.00218804      -0.00000368
Mg       3.18870000       5.52299041      10.26560005       0.00268120      -0.00565700      -0.00000762
Mg       3.18870003       7.36398725      12.83199995      -0.00178934       0.00102170      -0.00000367
Mg       6.37740000       5.52299041      10.26560005      -0.00248998       0.00325241      -0.00000722
Mg       6.37740003       7.36398725      12.83199995      -0.00004354       0.00341276      -0.00000540
Mg       9.56610000       5.52299041      10.26560005       0.00131122      -0.00239741      -0.00000655
Mg       9.56610003       7.36398725      12.83199995       0.00164820      -0.00011057      -0.00000345
Mg      -4.78305000       8.28448562      10.26560005       0.00007207      -0.00128960      -0.00000875
Mg      -4.78304997      10.12548246      12.83199995      -0.00115039       0.00354339      -0.00000429
Mg      -1.59435000       8.28448562      10.26560005      -0.00093094       0.00007885      -0.00000983
Mg      -1.59434997      10.12548246      12.83199995       0.00371454       0.00218755      -0.00000444
Mg       1.59435000       8.28448562      10.26560005       0.00268186      -0.00565643      -0.00000873
Mg       1.59435003      10.12548246      12.83199995      -0.00179014       0.00102165      -0.00000365
Mg       4.78305000       8.28448562      10.26560005      -0.00249008       0.00325303      -0.00000815
Mg       4.78305003      10.12548246      12.83199995      -0.00004246       0.00341326      -0.00000400
Mg       7.97175000       8.28448562      10.26560005       0.00131318      -0.00239703      -0.00000780
Mg       7.97175003      10.12548246      12.83199995       0.00164911      -0.00011129      -0.00000437
120
Lattice="15.9435 0.0 0.0 -6.3774 11.04598082 0.0 0.0 0.0 15.3984" Properties=species:S:1:pos:R:3:forces:R:3 energy=-180.51835216 stress="-0.0012279168316771884 0.00034573524716857484 6.870653245772291e-08 0.00034573524716857484 0.0016899926667560572 -2.5668268695286156e-06 6.870653245772291e-08 -2.5668268695286156e-06 -0.0008285913442783399" free_energy=-180.51742201 pbc="T T T"
Mg       9.56382601      11.04191225      15.38924735       0.00956527       0.02508588       0.02690314
Mg       0.00344992       1.83849238       2.57468963       0.00940334      -0.00523038      -0.03023291
Mg       3.18811038       0.00394927       0.01130858       0.00011980      -0.01479915      -0.02920823
Mg       3.19100747       1.83637366       2.56726744       0.00364216       0.01479820       0.00903285
Mg       6.37216537       0.00026798      15.39210298       0.00985576      -0.02341602       0.02626327
Mg       6.37352382       1.83848145       2.56434729       0.01180259      -0.00790294      -0.00164195
Mg       9.55691693       0.00829045       0.00088464       0.01720224      -0.02671621      -0.00850297
Mg       9.56672234       1.84508463       2.56085324       0.00535784      -0.00475373       0.01806399
Mg      12.75400381       0.00343000       0.00323567       0.00310552      -0.01922598      -0.00907203
Mg      12.76206169       1.83763853       2.56439518      -0.03418805      -0.00446187       0.01573218
Mg      -1.58995332       2.75767175       0.01068310       0.00775649       0.00386852      -0.03038814
Mg      -1.60276319       4.59298808       2.56713763       0.02456208       0.03079146       0.00137323
Mg       1.59780901       2.76715450       0.00125035      -0.00869749      -0.01920706       0.00263695
Mg       1.58973133       4.59515232       2.56761776       0.01707623       0.02897186       0.00368655
Mg       4.78678808       2.75284543       0.00067491      -0.00158313       0.01352528      -0.00343311
Mg       4.79283848       4.59359075       2.56005129      -0.03685515       0.01984073       0.02507191
Mg       7.97415367       2.75720848      15.39324831      -0.00711387       0.02340304       0.01484430
Mg       7.96752382       4.60119591       2.56523932       0.01894371       0.00321196       0.00295361
Mg      11.16732873       2.75548387      15.39764563      -0.00855388       0.02136442      -0.00022530
Mg      11.16610031       4.60562568       2.56535758      -0.01587867      -0.00940962       0.00669332
Mg      -3.18546522       5.52010465      15.38892275      -0.01206946       0.00715461       0.02566327
Mg      -3.18752637       7.36246843       2.56729732      -0.00692297      -0.00578433      -0.01331598
Mg      -0.00829620       5.52408175       0.00875676       0.02484788      -0.00530932      -0.01925627
Mg      -0.00038985       7.36446289       2.56866916       0.00048249      -0.00087645       0.00376275
Mg       3.19315366       5.51756131       0.00525332      -0.00040761       0.00586848      -0.00420462
Mg       3.18873071       7.36681049       2.56166843      -0.00607646      -0.02134658       0.01496162
Mg       6.38610442       5.51771419       0.00949080      -0.01464384       0.01579706      -0.03332126
Mg       6.37525311       7.37285684       2.56876417       0.00705988      -0.02014265      -0.01280381
Mg       9.57133521       5.52325441       0.00493888       0.00429800      -0.00774534      -0.00901938
Mg       9.55887243       7.35809190       2.57510030       0.02130959       0.01971279      -0.01686971
Mg      -4.78618956       8.29326187      15.39526658       0.00990970      -0.02919953       0.01518105
Mg      -4.77618779      10.11599020       2.57028876      -0.03227501       0.02157122      -0.00718465
Mg      -1.59962912       8.27781506      15.39810728       0.00839183       0.02606826       0.00453922
Mg      -1.59842978      10.12056677       2.56958398       0.02527580       0.00745644      -0.01548947
Mg       1.59589320       8.28024142      15.39605883      -0.00717188       0.00892366      -0.00039960
Mg       1.59867860      10.12678964       2.56367469      -0.01486370       0.00038270      -0.00128561
Mg       4.78129743       8.28533350       0.00296635       0.01075068      -0.00141059      -0.01178128
Mg       4.78016697      10.11932432       2.56178746       0.00670448       0.03430149       0.01868354
Mg       7.98708296       8.28505846      15.39815717      -0.04929285      -0.00421920       0.01042919
Mg       7.97257135      10.12946663       2.56588267       0.00623266      -0.00771963       0.00078264
Mg      -0.00299055       0.00668757       5.13114108       0.00912618      -0.03066398       0.00456692
Mg      -0.00679289       1.83334065       7.69582513       0.00787674       0.03042955      -0.00934697
Mg      -3.19035353      11.04155006       5.12997958       0.00026154       0.02747715       0.01892494
Mg       3.18347423       1.84763161       7.70583594       0.00191032      -0.02502671      -0.01669358
Mg       0.00364452      11.04511813       5.12228377      -0.00544913      -0.00305678       0.02462483
Mg       6.37447934       1.83697113       7.70222625       0.01889361       0.00548509      -0.02326031
Mg       9.56611240       0.00209465       5.14071257       0.00080689       0.00857836      -0.02616372
Mg       9.57064128       1.85333785       7.70425283      -0.03570148      -0.03327399      -0.00990928
Mg       6.37833703      11.04258274       5.14192319      -0.00884833      -0.00055817      -0.03220579
Mg      12.75062507       1.83191152       7.70119948       0.01900782       0.02469340      -0.00829789
Mg      14.34160407       2.75482708       5.12216859       0.01741209       0.02660973       0.04020586
Mg      -1.59449713       4.59799412       7.70288853       0.00878792       0.01131764      -0.01387953
Mg       1.60101872       2.76402716       5.12772926      -0.01627770      -0.00263910       0.02333012
Mg       1.60280423       4.59919261       7.70104242      -0.03513897       0.00941016      -0.01166333
Mg       4.78834595       2.76036189       5.14245490      -0.01352314      -0.00909422      -0.02339641
Mg       4.77237264       4.59814468       7.70273362       0.03506571       0.01489723      -0.00944318
Mg       7.97184895       2.76645883       5.12624393      -0.01347362      -0.01317860       0.02308187
Mg       7.97441384       4.60550020       7.71011608      -0.01396665      -0.00226126      -0.03709853
Mg      11.15495501       2.76102365       5.13592028       0.01925269      -0.00248984      -0.02506049
Mg      11.16587417       4.58829299       7.69323035      -0.00678122       0.05134944       0.01164337
Mg      -3.17625524       5.52613564       5.12814209      -0.03803277      -0.01730291       0.01042052
Mg      -3.18924756       7.35925780       7.69219311       0.00581838       0.00600477       0.01282875
Mg       0.00198956       5.53014964       5.13652405      -0.00308004      -0.02283135       0.00064652
Mg       0.01170674       7.37087298       7.70782464      -0.03778305      -0.02397815      -0.02929582
Mg       3.19092265       5.52859547       5.13324820      -0.00595084      -0.01926700      -0.01239029
Mg       3.18956073       7.36757543       7.70536475       0.01158968      -0.01117523      -0.02523735
Mg       6.36515731       5.52470972       5.13308282       0.02222868      -0.00438951       0.00466197
Mg       6.38234430       7.36261666       7.69597481      -0.02226389       0.01144936       0.00969671
Mg       9.55190113       5.51813029       5.13298581       0.03819080       0.01052645       0.00689103
Mg       9.56881339       7.36824393       7.69127183       0.00443105      -0.02137680       0.01489687
Mg      -4.77928430       8.28465130       5.13372770      -0.02225741      -0.00823854      -0.00161123
Mg      -4.78454591      10.12829277       7.70138088       0.00185866      -0.00850144      -0.01250295
Mg      -1.60359908       8.29189404       5.13658796       0.03768700      -0.02085151      -0.00192827
Mg      -1.59659414      10.12883127       7.69646694       0.00255170       0.00396807      -0.00172149
Mg       1.59521694       8.28744605       5.13354923       0.00114751      -0.01477769      -0.01121740
Mg       1.59752882      10.11623785       7.69158965      -0.01527100       0.04541770       0.01399338
Mg       4.78323868       8.28467826       5.13082649      -0.01021878       0.01315267       0.01552543
Mg       4.77706286      10.13462201       7.70202330       0.00989948      -0.02619015      -0.00863525
Mg       7.97067244       8.28288991       5.12987964       0.00551834       0.00926911       0.00897084
Mg       7.97091434      10.12085739       7.70080359       0.00370714       0.00096999      -0.01084555
Mg       0.00043985       0.00354775      10.25884570      -0.01479926      -0.02550403       0.03045681
Mg       0.01031796       1.84741080      12.83144114      -0.02496316      -0.01140901       0.00288073
Mg      -3.20125892      11.04218829      10.26551074       0.03052440       0.01242466       0.00510786
Mg       3.19239679       1.84446484      12.83438224       0.00233094      -0.00597646      -0.00845963
Mg       6.37245388       0.00741870      10.25631035       0.00607933      -0.02519858       0.00927226
Mg       6.38021808       1.83955722      12.83301594      -0.00525262       0.01892204      -0.01371107
Mg       9.56034440       0.00324531      10.26758136      -0.00117530       0.01196572       0.00137074
Mg       9.56419061       1.84664774      12.83591699       0.02188241      -0.00508858      -0.01810687
Mg       6.37492586      11.03823184      10.25301063       0.00783372       0.01118989       0.04439043
Mg      12.76742920       1.84724997      12.83131949      -0.02110467      -0.01942265      -0.00449288
Mg      -1.59145284       2.76345079      10.26391239      -0.01531649      -0.00750803       0.00562339
Mg      -1.59029158       4.60651588      12.83443736      -0.00137259       0.00458041      -0.00863872
Mg       1.58719213       2.76413276      10.26480596       0.02044794      -0.00864006       0.00589818
Mg       1.59422908       4.60718648      12.83673834      -0.00315171       0.00654302      -0.00309745
Mg       4.78508216       2.76030831      10.25987400      -0.01286450      -0.00562578       0.02291691
Mg       4.77827852       4.59305038      12.83160929       0.02406458       0.02090289       0.00084678
Mg       7.96556188       2.76980145      10.26391716       0.01439039      -0.02048194       0.01130147
Mg       7.98175177       4.60737315      12.82875997      -0.02907499      -0.00690948       0.01520408
Mg      11.16122645       2.75489799      10.26612006       0.00280953       0.01177273       0.01125847
Mg      11.16576225       4.60565561      12.83115735      -0.00658758      -0.00699227       0.00334253
Mg      12.74448306       5.52561836      10.26702348       0.03407951      -0.01373042      -0.00453887
Mg      -3.19342246       7.37250735      12.83441950       0.01349952      -0.00650334      -0.01453307
Mg       0.00345591       5.52175050      10.26514395      -0.01856551       0.01588677       0.00821106
Mg      -0.00292206       7.37668151      12.83181871       0.01092511      -0.02961979      -0.00744481
Mg       3.18555916       5.51855567      10.26335912       0.01414567       0.00990601       0.01549359
Mg       3.19004251       7.35683851      12.83409967      -0.01478144       0.01986474      -0.00759883
Mg       6.38206341       5.52441932      10.25886079      -0.03340994       0.01190562       0.02715658
Mg       6.37450488       7.35903169      12.83769859      -0.00061894      -0.00108449      -0.01117590
Mg       9.56925496       5.51999021      10.26999599       0.00470037       0.00331936      -0.02392701
Mg       9.56225443       7.36442832      12.83298652       0.01695768       0.01210820      -0.00333194
Mg      11.16266672       8.27362476      10.26265973      -0.01082853       0.03394163       0.00635143
Mg      -4.77457839      10.13783959      12.83427152      -0.02504614      -0.03159802      -0.01408555
Mg      -1.59804494       8.28670674      10.25748094       0.00608891      -0.01024771       0.01780140
Mg      -1.58049577      10.12862239      12.83085770      -0.05235165       0.00266663      -0.00292032
Mg       1.59642737       8.29048038      10.25625507      -0.01220762      -0.01550417       0.04205435
Mg       1.58558879      10.13481708      12.82812987       0.03758709      -0.02369805       0.00039758
Mg       4.76714269       8.29293855      10.26547194       0.05497853      -0.03197379       0.00899743
Mg       4.78673729      10.12670580      12.83883114      -0.02609432       0.01098388      -0.01244633
Mg       7.97517568       8.27573764      10.26327382      -0.01341704       0.01674036       0.00828075
Mg       7.95811690      10.11737084      12.83306629       0.04161668       0.02965088      -0.02012033
120
Lattice="15.9435 0.0 0.0 -6.3774 11.04598082 0.0 0.0 0.0 15.3984" Properties=species:S:1:pos:R:3:forces:R:3 energy=-180.47055326 stress="-0.001273246653032175 0.00031583914871216183 3.913288908728034e-06 0.00031583914871216183 0.0016226182970401264 2.7651945125674373e-06 3.913288908728034e-06 2.7651945125674373e-06 -0.0008819303388002602" free_energy=-180.46961581 pbc="T T T"
Mg       9.56155575      11.03785352      15.38010547       0.01928150       0.04901656       0.05311269
Mg       0.00690347       1.83598572       2.58296734       0.02110488      -0.01781805      -0.06534378
Mg       3.18752075       0.00789246       0.02260547      -0.00008210      -0.02661402      -0.06023775
Mg       3.19331654       1.83175621       2.56813838       0.00293360       0.02664098       0.01714395
Mg       6.36693462       0.00052645      15.38581627       0.01843796      -0.03865764       0.05293438
Mg       6.36965238       1.83596274       2.56229407       0.02947358      -0.01303016      -0.00147660
Mg       9.54774052       0.01657019       0.00176589       0.04608198      -0.05801393      -0.01628526
Mg       9.56734669       1.84917053       2.55531367       0.01398452      -0.01232467       0.03600967
Mg      12.75320897       0.00685215       0.00646779       0.00312124      -0.03576745      -0.01554320
Mg      12.76930970       1.83427845       2.56239662      -0.07034751      -0.01331176       0.03294252
Mg      -1.58555349       2.75384973       0.02135404       0.01439781       0.01012427      -0.06204860
Mg      -1.61116685       4.58349627       2.56787568       0.05259442       0.05953493       0.00185593
Mg       1.60126435       2.77280607       0.00250178      -0.01625771      -0.04091709       0.00749609
Mg       1.58511938       4.58782409       2.56883700       0.02847291       0.05074351       0.00616423
Mg       4.79052556       2.74420084       0.00134844      -0.01162321       0.03662316      -0.00536999
Mg       4.80261236       4.58469730       2.55371269      -0.07319541       0.03945790       0.04819025
Mg       7.97655451       2.75293081      15.38810263      -0.00971970       0.04294127       0.02454306
Mg       7.96330505       4.59990099       2.56407997       0.03357643       0.00019475       0.00593004
Mg      11.17420404       2.74948093      15.39689111      -0.01900332       0.04094911       0.00036922
Mg      11.17174438       4.60875545       2.56431788      -0.03444817      -0.02223184       0.01506213
Mg      -3.18223545       5.51722176      15.37945566      -0.02489508       0.01482065       0.05165850
Mg      -3.18635557       7.36094729       2.56818935      -0.01556205      -0.01192952      -0.02805921
Mg      -0.01658252       5.52517089       0.01750583       0.05125593      -0.00470703      -0.03326184
Mg      -0.00077964       7.36493809       2.57093996      -0.00046562      -0.00239837       0.00951582
Mg       3.19760738       5.51213431       0.01050510      -0.00825167       0.01447843      -0.01313421
Mg       3.18875886       7.36962512       2.55694266      -0.01236027      -0.04418698       0.03068921
Mg       6.39480310       5.51244404       0.01896852      -0.02698661       0.02776680      -0.06441753
Mg       6.37310893       7.38171837       2.57112320       0.01081381      -0.04555471      -0.02194012
Mg       9.57657217       5.52351509       0.00987438       0.00628776      -0.01458868      -0.02171888
Mg       9.55165337       7.35220439       2.58379408       0.04102770       0.02979370      -0.03909133
Mg      -4.78932530       8.30202652      15.39213932       0.02320548      -0.05521309       0.03064484
Mg      -4.76933833      10.10650645       2.57417470      -0.06640931       0.03396606      -0.01484992
Mg      -1.60490492       8.27115477      15.39781640       0.01335471       0.05058287       0.00977394
Mg      -1.60249962      10.11565396       2.57276190       0.04434365       0.01029775      -0.02926773