128
Lattice="14.03051203 0.0 0.0 -7.01525602 12.15077985 0.0 0.0 0.0 22.58448968" Properties=species:S:1:pos:R:3:forces:R:3 energy=-172.30913644 stress="0.03589729515044488 -4.814700139706346e-07 -6.784520419835101e-09 -4.814700139706346e-07 0.03589673660403471 -1.1690346592779342e-08 -6.784520419835101e-09 -1.1690346592779342e-08 0.040141884749189824" free_energy=-172.32708804 pbc="T T T"
Mg       0.00000000       0.00000000       0.00000000       0.00000434      -0.00000239       0.00000078
Mg      -0.00000007       2.02513002       2.82306121      -0.00000585       0.00000411      -0.00000088
Mg       3.50762801       0.00000000       0.00000000       0.00000526      -0.00000303      -0.00000042
Mg       3.50762794       2.02513002       2.82306121      -0.00000331       0.00000335      -0.00000151
Mg       7.01525602       0.00000000       0.00000000       0.00000375      -0.00000218      -0.00000299
Mg       7.01525594       2.02513002       2.82306121      -0.00000347       0.00000330      -0.00000144
Mg      10.52288402       0.00000000       0.00000000       0.00000403      -0.00000205       0.00000078
Mg      10.52288395       2.02513002       2.82306121      -0.00000664       0.00000270       0.00000029
Mg      -1.75381400       3.03769496       0.00000000       0.00000445      -0.00000103      -0.00000176
Mg      -1.75381408       5.06282498       2.82306121      -0.00000588       0.00000474      -0.00000060
Mg       1.75381400       3.03769496       0.00000000       0.00000441      -0.00000328      -0.00000104
Mg       1.75381393       5.06282498       2.82306121      -0.00000744       0.00000515      -0.00000071
Mg       5.26144201       3.03769496       0.00000000       0.00000651      -0.00000167      -0.00000252
Mg       5.26144194       5.06282498       2.82306121      -0.00000322       0.00000521       0.00000188
Mg       8.76907002       3.03769496       0.00000000       0.00000531      -0.00000250      -0.00000122
Mg       8.76906995       5.06282498       2.82306121      -0.00000367       0.00000366       0.00000087
Mg      -3.50762801       6.07538992       0.00000000       0.00000469      -0.00000313      -0.00000196
Mg      -3.50762808       8.10051994       2.82306121      -0.00000417       0.00000022      -0.00000077
Mg      -0.00000000       6.07538992       0.00000000       0.00000496      -0.00000158      -0.00000067
Mg      -0.00000007       8.10051994       2.82306121      -0.00000573       0.00000148      -0.00000129
Mg       3.50762801       6.07538992       0.00000000       0.00000645      -0.00000171      -0.00000205
Mg       3.50762793       8.10051994       2.82306121      -0.00000458      -0.00000025      -0.00000030
Mg       7.01525601       6.07538992       0.00000000       0.00000354      -0.00000177      -0.00000180
Mg       7.01525594       8.10051994       2.82306121      -0.00000737       0.00000063       0.00000007
Mg      -5.26144202       9.11308489       0.00000000       0.00000492      -0.00000441      -0.00000062
Mg      -5.26144209      11.13821490       2.82306121      -0.00000461       0.00000129      -0.00000105
Mg      -1.75381401       9.11308489       0.00000000       0.00000586      -0.00000303      -0.00000013
Mg      -1.75381408      11.13821490       2.82306121      -0.00000481       0.00000315      -0.00000018
Mg       1.75381400       9.11308489       0.00000000       0.00000402      -0.00000560      -0.00000040
Mg       1.75381393      11.13821490       2.82306121      -0.00000520       0.00000351      -0.00000091
Mg       5.26144201       9.11308489       0.00000000       0.00000749      -0.00000435      -0.00000239
Mg       5.26144194      11.13821490       2.82306121      -0.00000492       0.00000222      -0.00000007
Mg       0.00000000       0.00000000       5.64612242       0.00000583      -0.00000246       0.00000396
Mg      -0.00000007       2.02513002       8.46918363      -0.00000395       0.00000607       0.00000488
Mg       3.50762801       0.00000000       5.64612242       0.00000412      -0.00000397       0.00000446
Mg       3.50762794       2.02513002       8.46918363      -0.00000382       0.00000636       0.00000365
Mg       7.01525602       0.00000000       5.64612242       0.00000613      -0.00000260       0.00000374
Mg       7.01525594       2.02513002       8.46918363      -0.00000475       0.00000335       0.00000286
Mg      10.52288402       0.00000000       5.64612242       0.00000447      -0.00000128       0.00000493
Mg      10.52288395       2.02513002       8.46918363      -0.00000700       0.00000570       0.00000345
Mg      -1.75381400       3.03769496       5.64612242       0.00000302      -0.00000296       0.00000534
Mg      -1.75381408       5.06282498       8.46918363      -0.00000632       0.00000465       0.00000376
Mg       1.75381400       3.03769496       5.64612242       0.00000654      -0.00000114       0.00000454
Mg       1.75381393       5.06282498       8.46918363      -0.00000394       0.00000286       0.00000312
Mg       5.26144201       3.03769496       5.64612242       0.00000708       0.00000064       0.00000321
Mg       5.26144194       5.06282498       8.46918363      -0.00000445       0.00000289       0.00000504
Mg       8.76907002       3.03769496       5.64612242       0.00000480      -0.00000006       0.00000363
Mg       8.76906995       5.06282498       8.46918363      -0.00000273       0.00000237       0.00000453
Mg      -3.50762801       6.07538992       5.64612242       0.00000519      -0.00000365       0.00000352
Mg      -3.50762808       8.10051994       8.46918363      -0.00000680       0.00000151       0.00000398
Mg      -0.00000000       6.07538992       5.64612242       0.00000302      -0.00000188       0.00000489
Mg      -0.00000007       8.10051994       8.46918363      -0.00000539       0.00000044       0.00000324
Mg       3.50762801       6.07538992       5.64612242       0.00000494      -0.00000306       0.00000428
Mg       3.50762793       8.10051994       8.46918363      -0.00000453       0.00000242       0.00000493
Mg       7.01525601       6.07538992       5.64612242       0.00000428      -0.00000285       0.00000394
Mg       7.01525594       8.10051994       8.46918363      -0.00000511       0.00000105       0.00000488
Mg      -5.26144202       9.11308489       5.64612242       0.00000466      -0.00000493       0.00000449
Mg      -5.26144209      11.13821490       8.46918363      -0.00000529       0.00000135       0.00000355
Mg      -1.75381401       9.11308489       5.64612242       0.00000472      -0.00000525       0.00000162
Mg      -1.75381408      11.13821490       8.46918363      -0.00000501       0.00000382       0.00000606
Mg       1.75381400       9.11308489       5.64612242       0.00000435      -0.00000108       0.00000485
Mg       1.75381393      11.13821490       8.46918363      -0.00000540       0.00000138       0.00000373
Mg       5.26144201       9.11308489       5.64612242       0.00000603      -0.00000361       0.00000410
Mg       5.26144194      11.13821490       8.46918363      -0.00000543       0.00000072       0.00000396
Mg       0.00000000       0.00000000      11.29224484       0.00000733      -0.00000232      -0.00000032
Mg      -0.00000007       2.02513002      14.11530605      -0.00000651       0.00000574      -0.00000362
Mg       3.50762801       0.00000000      11.29224484       0.00000451      -0.00000468       0.00000088
Mg       3.50762794       2.02513002      14.11530605      -0.00000457       0.00000236      -0.00000325
Mg       7.01525602       0.00000000      11.29224484       0.00000536      -0.00000122       0.00000087
Mg       7.01525594       2.02513002      14.11530605      -0.00000470       0.00000465      -0.00000616
Mg      10.52288402       0.00000000      11.29224484       0.00000510      -0.00000116       0.00000052
Mg      10.52288395       2.02513002      14.11530605      -0.00000575       0.00000420      -0.00000388
Mg      -1.75381400       3.03769496      11.29224484       0.00000494      -0.00000057      -0.00000010
Mg      -1.75381408       5.06282498      14.11530605      -0.00000534       0.00000321      -0.00000396
Mg       1.75381400       3.03769496      11.29224484       0.00000427      -0.00000171      -0.00000119
Mg       1.75381393       5.06282498      14.11530605      -0.00000464       0.00000622      -0.00000305
Mg       5.26144201       3.03769496      11.29224484       0.00000616       0.00000041       0.00000076
Mg       5.26144194       5.06282498      14.11530605      -0.00000388       0.00000255      -0.00000450
Mg       8.76907002       3.03769496      11.29224484       0.00000590      -0.00000026       0.00000031
Mg       8.76906995       5.06282498      14.11530605      -0.00000489       0.00000300      -0.00000227
Mg      -3.50762801       6.07538992      11.29224484       0.00000446      -0.00000478       0.00000107
Mg      -3.50762808       8.10051994      14.11530605      -0.00000510       0.00000096      -0.00000421
Mg      -0.00000000       6.07538992      11.29224484       0.00000375      -0.00000401       0.00000203
Mg      -0.00000007       8.10051994      14.11530605      -0.00000626       0.00000182      -0.00000503
Mg       3.50762801       6.07538992      11.29224484       0.00000632      -0.00000289       0.00000065
Mg       3.50762793       8.10051994      14.11530605      -0.00000349       0.00000032      -0.00000481
Mg       7.01525601       6.07538992      11.29224484       0.00000372      -0.00000202      -0.00000028
Mg       7.01525594       8.10051994      14.11530605      -0.00000575       0.00000196      -0.00000032
Mg      -5.26144202       9.11308489      11.29224484       0.00000551      -0.00000341      -0.00000003
Mg      -5.26144209      11.13821490      14.11530605      -0.00000399       0.00000120      -0.00000335
Mg      -1.75381401       9.11308489      11.29224484       0.00000451      -0.00000391       0.00000060
Mg      -1.75381408      11.13821490      14.11530605      -0.00000406       0.00000290      -0.00000189
Mg       1.75381400       9.11308489      11.29224484       0.00000533      -0.00000209      -0.00000068
Mg       1.75381393      11.13821490      14.11530605      -0.00000674       0.00000259      -0.00000334
Mg       5.26144201       9.11308489      11.29224484       0.00000338      -0.00000483      -0.00000032
Mg       5.26144194      11.13821490      14.11530605      -0.00000521       0.00000157      -0.00000063
Mg       0.00000000       0.00000000      16.93836726       0.00000484      -0.00000478      -0.00000402
Mg      -0.00000007       2.02513002      19.76142847      -0.00000773       0.00000474      -0.00000081
Mg       3.50762801       0.00000000      16.93836726       0.00000467      -0.00000488      -0.00000482
Mg       3.50762794       2.02513002      19.76142847      -0.00000513       0.00000457      -0.00000004
Mg       7.01525602       0.00000000      16.93836726       0.00000613      -0.00000261      -0.00000416
Mg       7.01525594       2.02513002      19.76142847      -0.00000506       0.00000394      -0.00000256
Mg      10.52288402       0.00000000      16.93836726       0.00000624      -0.00000228      -0.00000309
Mg      10.52288395       2.02513002      19.76142847      -0.00000516       0.00000403       0.00000056
Mg      -1.75381400       3.03769496      16.93836726       0.00000391       0.00000036      -0.00000420
Mg      -1.75381408       5.06282498      19.76142847      -0.00000505       0.00000406       0.00000037
Mg       1.75381400       3.03769496      16.93836726       0.00000516      -0.00000072      -0.00000234
Mg       1.75381393       5.06282498      19.76142847      -0.00000332       0.00000256      -0.00000063
Mg       5.26144201       3.03769496      16.93836726       0.00000552      -0.00000077      -0.00000364
Mg       5.26144194       5.06282498      19.76142847      -0.00000317       0.00000133       0.00000350
Mg       8.76907002       3.03769496      16.93836726       0.00000442      -0.00000061      -0.00000392
Mg       8.76906995       5.06282498      19.76142847      -0.00000655       0.00000443       0.00000057
Mg      -3.50762801       6.07538992      16.93836726       0.00000453      -0.00000420      -0.00000407
Mg      -3.50762808       8.10051994      19.76142847      -0.00000608       0.00000165      -0.00000241
Mg      -0.00000000       6.07538992      16.93836726       0.00000556      -0.00000131      -0.00000359
Mg      -0.00000007       8.10051994      19.76142847      -0.00000560       0.00000233      -0.00000055
Mg       3.50762801       6.07538992      16.93836726       0.00000398      -0.00000132      -0.00000382
Mg       3.50762793       8.10051994      19.76142847      -0.00000347       0.00000109      -0.00000266
Mg       7.01525601       6.07538992      16.93836726       0.00000825      -0.00000260      -0.00000479
Mg       7.01525594       8.10051994      19.76142847      -0.00000235       0.00000112      -0.00000282
Mg      -5.26144202       9.11308489      16.93836726       0.00000591      -0.00000443      -0.00000298
Mg      -5.26144209      11.13821490      19.76142847      -0.00000462       0.00000149      -0.00000176
Mg      -1.75381401       9.11308489      16.93836726       0.00000553      -0.00000418      -0.00000286
Mg      -1.75381408      11.13821490      19.76142847      -0.00000451       0.00000164      -0.00000049
Mg       1.75381400       9.11308489      16.93836726       0.00000243      -0.00000404      -0.00000210
Mg       1.75381393      11.13821490      19.76142847      -0.00000510       0.00000379      -0.00000271
Mg       5.26144201       9.11308489      16.93836726       0.00000319      -0.00000341      -0.00000496
Mg       5.26144194      11.13821490      19.76142847      -0.00000569       0.00000227      -0.00000212
128
Lattice="14.03051203 0.0 0.0 -7.01525602 12.15077985 0.0 0.0 0.0 22.58448968" Properties=species:S:1:pos:R:3:forces:R:3 energy=-172.30411711 stress="0.035869879621201875 -2.2911206869109744e-06 3.5674281635354647e-06 -2.2911206869109744e-06 0.03586665314795736 -1.362003396922867e-06 3.5674281635354647e-06 -1.362003396922867e-06 0.040202271830578944" free_energy=-172.32201669 pbc="T T T"
Mg       7.00448149      12.14496121       0.00817513       0.01078518       0.00425067      -0.01083342
Mg      -0.00248761       2.02223971       2.82438466       0.00327185       0.00654191      -0.00119969
Mg       3.50198529       0.00550467      22.57952651       0.00273114      -0.00928570       0.00433803
Mg       3.49269154       2.02274591       2.81418709       0.01361466      -0.00192325       0.00804416
Mg       7.01628466       0.00621306       0.00917021      -0.00024201      -0.00747203      -0.00999434
Mg       7.01749767       2.02935326       2.81352604      -0.00023094      -0.00313148       0.01118814
Mg      10.52894380       0.00386346      22.58035988      -0.00622623      -0.00314758      -0.00118220
Mg      10.53637106       2.02897015       2.81181052      -0.01311667       0.00277197       0.00378453
Mg      -1.73665602       3.04133206      22.58357320      -0.01322792      -0.00081989      -0.00039805
Mg      -1.74990202       5.05840708       2.82674542      -0.00385595       0.00827240      -0.00503238
Mg       1.75348492       3.03836556       0.00257576      -0.00073556      -0.00063554      -0.00052277
Mg       1.75596516       5.05678106       2.82983701      -0.00414542       0.00952414      -0.00569378
Mg       5.26906086       3.03688159       0.00998889      -0.00983392       0.00092074      -0.01033163
Mg       5.26460624       5.06250201       2.81421983      -0.00741628      -0.00137036       0.00650567
Mg       8.76071211       3.04520135      22.58422409       0.01781893      -0.00245090       0.00118491
Mg       8.76498272       5.06451807       2.83177273       0.00831733      -0.00417834      -0.00343501
Mg      -3.50892534       6.08234880      22.57940749       0.00318560      -0.00586842       0.00384120
Mg      -3.51077239       8.10277209       2.82436162       0.00274989      -0.00318004      -0.00012413
Mg       0.00058163       6.07080750      22.57543375       0.00185872       0.00166695       0.01243932
Mg       0.00140347       8.10918454       2.82354813      -0.00171096      -0.01219817      -0.00143208
Mg       3.51127306       6.06890518      22.57367329      -0.00191880       0.00160000       0.01227535
Mg       3.49834907       8.10120974       2.82501432       0.00933197      -0.00263519      -0.00210163
Mg       7.02301327       6.07086777       0.00726972      -0.00518741       0.00150253      -0.01264268
Mg       7.00710948       8.08956516       2.81825500       0.00493651       0.01359155       0.00564095
Mg       8.76988912       9.10310497      22.58419473       0.00327799       0.00772841       0.00091674
Mg      -5.26510391      11.14034639       2.82454072       0.00140429      -0.00595046       0.00358158
Mg      -1.74479526       9.10353717      22.57815044      -0.00739782       0.01134839       0.00529015
Mg      -1.75193280      11.13435351       2.82912515      -0.00704858       0.00564137      -0.00183803
Mg       1.76442429       9.10334482      22.58440792      -0.00700522       0.00905677      -0.00401858
Mg       1.74817661      11.14729154       2.81773308       0.00915459      -0.00590074       0.00300594
Mg       5.26934238       9.10146716      22.57985196      -0.00657768       0.00546949       0.00392447
Mg       5.25766226      11.15786271       2.81951951       0.00025995      -0.02089078       0.00031662
Mg      -0.00570803       0.01019791       5.64647271       0.00558026      -0.00924101       0.00027690
Mg       0.00140929       2.02154578       8.46245277      -0.00138646       0.00882501       0.00510443
Mg       3.50311320       0.00571196       5.66064470       0.00266244      -0.00444024      -0.01330871
Mg       3.50834854       2.02210277       8.46576276      -0.00209449       0.00582452       0.00226133
Mg       7.01974318       0.00303077       5.64776183      -0.00074193      -0.00330366       0.00150734
Mg       7.00836247       2.03280639       8.47892951       0.00659560      -0.01065072      -0.00198910
Mg       3.51888693      12.14803645       5.64600363      -0.01055511       0.00844366      -0.00255357
Mg      10.52083017       2.02036278       8.46920599       0.00187062       0.00683276       0.00110254
Mg      -1.74862286       3.04473172       5.64904982      -0.00469369      -0.00139288      -0.00210943
Mg      -1.75026099       5.06478028       8.47038693      -0.00557983      -0.00144855      -0.00130342
Mg       1.74679594       3.04255090       5.64331133       0.00276135      -0.00061932       0.00448626
Mg       1.75342157       5.06784580       8.47379945       0.00008729      -0.00430555       0.00027548
Mg       5.26799110       3.03371911       5.64879981      -0.00115331       0.00031931      -0.00645513
Mg       5.26123590       5.05988412       8.47191342      -0.00447592       0.00278903       0.00009420
Mg       8.77595079       3.03308945       5.65159284      -0.00227953      -0.00233611      -0.00523807
Mg       8.76205294       5.05872275       8.46880376       0.01246601       0.00483725       0.00538120
Mg      10.51715129       6.06690382       5.64215410       0.00482652       0.00564201       0.00662294
Mg      -3.51045502       8.10537940       8.47708459       0.00064558      -0.00769809      -0.00057117
Mg      -0.00677190       6.07853272       5.64364129       0.00256775      -0.00120510       0.00235840
Mg      -0.00257313       8.09846257       8.47210064       0.00273323       0.00147515       0.00254920
Mg       3.50405191       6.06052393       5.64431001       0.00450339       0.01216902       0.00062213
Mg       3.51086302       8.10073440       8.47004478       0.00024744      -0.00302284       0.00081125
Mg       7.01613671       6.08053967       5.64722477      -0.00472038      -0.00323235      -0.00019970
Mg       7.01641128       8.08975471       8.47100417      -0.00113196       0.01500191       0.00135229
Mg      -5.25604742       9.10771157       5.65524023      -0.00677558       0.00541439      -0.00435697
Mg      -5.25875138      11.14825376       8.46899528      -0.00481647      -0.01253557       0.00065186
Mg      -1.75447120       9.09993410       5.64770311       0.00011691       0.01274843       0.00329574
Mg      -1.75898846      11.12988494       8.47199495       0.00559542       0.00569825      -0.00204598
Mg       1.76462858       9.10534314       5.65109169      -0.01073385       0.00728853      -0.00197445
Mg       1.75762363      11.13783337       8.46392144      -0.00477103       0.00093241       0.00161089
Mg       5.25903641       9.12159226       5.63770721       0.00619734      -0.00511170       0.00328438
Mg       5.25857557      11.14565446       8.47567825       0.00814919      -0.01189845      -0.00257042
Mg       0.01195589       0.00304462      11.28813853      -0.00958140       0.00023300       0.00253531
Mg      -0.00554984       2.02203691      14.11179642       0.00425776       0.00487744      -0.00030756
Mg       3.50049174       0.00271072      11.29749596       0.00754035       0.00086128      -0.00426945
Mg       3.50217449       2.02149268      14.11085939       0.00752395       0.00767344       0.00484468
Mg      -0.00588279      12.14521054      11.28198855       0.00364168       0.00547209       0.00424918
Mg       7.02337309       2.03662915      14.10408178      -0.00888611      -0.01337947       0.00619113
Mg      10.52623563       0.00585959      11.28914128      -0.00269409       0.00046315       0.00147747
Mg      10.52322588       2.02802773      14.11707464       0.00385854      -0.00066829       0.00006431
Mg      -1.75584962       3.04354933      11.28897732       0.00229607      -0.00304691      -0.00008164
Mg      -1.75264372       5.06818554      14.10590413       0.00041787      -0.00694680       0.00745266
Mg       1.75953473       3.03811307      11.29117208      -0.00290724       0.00229169      -0.00008635
Mg       1.75821173       5.06526182      14.11814040      -0.00320459      -0.00468614       0.00278132
Mg       5.25882167       3.04258298      11.29371057      -0.00294672      -0.00348352       0.00004529
Mg       5.26845144       5.06249715      14.11811466      -0.00840644      -0.00110966      -0.00003812
Mg       8.76433191       3.04214434      11.29808225       0.00474607      -0.00071924      -0.00674439
Mg       8.77022382       5.05670900      14.11445055       0.00036883       0.00931649      -0.00139255
Mg      -3.49296437       6.08718311      11.29746186      -0.01913425      -0.00771069      -0.00699208
Mg      -3.51332517       8.09680763      14.11512763       0.00369296       0.00526277       0.00422233
Mg      -0.00527526       6.07297569      11.29215495       0.00776261       0.00208214       0.00165453
Mg       0.00243043       8.10281012      14.11997426      -0.00041797      -0.00091629      -0.00055739
Mg       3.51198960       6.07570548      11.30193042      -0.00167888      -0.00082523      -0.00786057
Mg       3.50497399       8.08855106      14.10818945       0.00216996       0.01274730       0.00396778
Mg       7.01198697       6.06864345      11.29177689       0.00606245       0.00576646       0.00346413
Mg       7.01377397       8.09868724      14.11591109       0.00153681      -0.00038124      -0.00160414
Mg      -5.25980332       9.12656314      11.29826541      -0.00285588      -0.01184098      -0.00121582
Mg      -5.24884788      11.14426453      14.11970325      -0.01329774      -0.00720328       0.00074161
Mg      -1.75576530       9.10823369      11.29927855       0.00254479       0.00460015      -0.00169268
Mg      -1.74252288      11.13869437      14.10566089      -0.00732151       0.00253913       0.00043764
Mg       1.75723871       9.11749562      11.29157747      -0.00049244       0.00038267       0.00211849
Mg       1.75813785      11.14937126      14.11899771      -0.00319650      -0.00893247      -0.00754808
Mg       5.26692611       9.10907999      11.29323269       0.00099297       0.00039064      -0.00477952
Mg       5.25594191      11.13124291      14.09878098       0.00516626       0.00519363       0.00742270
Mg       7.00542806      12.14955311      16.93427721       0.00255642       0.00032308       0.00136471
Mg       0.00106078       2.03091354      19.75089981       0.00045520      -0.01046091       0.01034249
Mg      -3.51270664      12.14774945      16.93034344      -0.00010414       0.00356265       0.00504075
Mg       3.50355523       2.02058404      19.77424381       0.00535714       0.00430562      -0.00784185
Mg      -0.00778392      12.14270092      16.94151780       0.00652019       0.01145731      -0.00797188
Mg       7.01748953       2.02757536      19.76740252      -0.00441234      -0.00355077      -0.00499172
Mg       3.50287615      12.14415306      16.93604083       0.00393479       0.00415517       0.00198431
Mg      10.52869104       2.02425322      19.76971404      -0.00669193       0.00103681      -0.00381156
Mg      -1.75036937       3.04191566      16.94506898      -0.00414111      -0.00143400      -0.00703826
Mg      -1.75409812       5.05862093      19.77020187      -0.00399689       0.00439731      -0.00498180
Mg       1.74745004       3.03857541      16.94616478       0.00491404       0.00095821      -0.00460928
Mg       1.74553481       5.07164985      19.76878672       0.00460948      -0.00976516      -0.00459371
Mg       5.26189442       3.03996363      16.93448205      -0.00216906      -0.00678192       0.00127053
Mg       5.24544049       5.06189216      19.75609672       0.01507349      -0.00339240       0.00555137
Mg       8.77335192       3.04164312      16.93521559      -0.00387681      -0.00518395       0.00420899
Mg       8.76551251       5.06043079      19.75765483      -0.00032447       0.00515697      -0.00066950
Mg      10.52013439       6.06921235      16.93518352       0.00024542       0.00343431       0.00225867
Mg      -3.50351419       8.10117462      19.75345411      -0.00517007      -0.00241459       0.00027854
Mg      -0.00417801       6.07404799      16.93669217      -0.00040139       0.00271206       0.00174488
Mg      -0.01006206       8.09625720      19.77170893       0.01216494       0.00361079      -0.00849807
Mg       3.51144760       6.07949725      16.94629848      -0.00706789      -0.00231419      -0.00600351
Mg       3.51247463       8.08977306      19.76222525      -0.00456194       0.01263981      -0.00154847
Mg       7.00385236       6.07739250      16.93771050       0.01049012      -0.00174021       0.00346649
Mg       7.02048652       8.11132709      19.75705250      -0.00376776      -0.01422005       0.00389260
Mg       8.75878719       9.11333082      16.94347000       0.00764338      -0.00042134      -0.00772796
Mg      -5.26079935      11.14004384      19.76526512      -0.00243731       0.00043031       0.00124418
Mg      -1.75702580       9.11689404      16.93329275       0.00015725      -0.00710178      -0.00148810
Mg      -1.74943403      11.13050280      19.74989999      -0.00635344       0.00932156       0.00806331
Mg       1.76162009       9.11245681      16.93762333      -0.00408125      -0.00401389       0.00130316
Mg       1.75004646      11.13442605      19.74933357       0.00411834       0.00039708       0.01060234
Mg       5.26330337       9.11518442      16.93737174      -0.00313663       0.00212059      -0.00347681
Mg       5.25841436      11.13618366      19.76561338       0.00096770       0.00181839      -0.00336608
128
Lattice="14.03051203 0.0 0.0 -7.01525602 12.15077985 0.0 0.0 0.0 22.58448968" Properties=species:S:1:pos:R:3:forces:R:3 energy=-172.28511607 stress="0.0358523304885813 8.877048769378724e-07 2.6621908874629864e-07 8.877048769378724e-07 0.035846507166808365 -5.378682904321157e-07 2.6621908874629864e-07 -5.378682904321157e-07 0.04018868442721943" free_energy=-172.30285991 pbc="T T T"
Mg       6.99371132      12.13914426       0.01634598       0.02510671       0.00992316      -0.02119093
Mg      -0.00497375       2.01935183       2.82570743       0.00719943       0.01336183      -0.00330091
Mg       3.49634376       0.01100557      22.57456493       0.01096525      -0.02252505       0.01030540
Mg       3.47776055       2.02036096       2.80531612       0.02886640      -0.00128351       0.02068815
Mg       7.01731331       0.01242296       0.01833657      -0.00146234      -0.01728831      -0.02347488
Mg       7.01973925       2.03357529       2.80399538      -0.00012224      -0.00319821       0.02424869
Mg      10.53500112       0.00772559      22.57622985      -0.01634383      -0.00839805      -0.00055576
Mg      10.54985298       2.03281125       2.80056119      -0.02849904       0.00545548       0.01590270
Mg      -1.71950323       3.04496891      22.58265650      -0.02845716      -0.00077223       0.00108114
Mg      -1.74599136       5.05399233       2.83042759      -0.00514002       0.01576641      -0.00940545
Mg       1.75315548       3.03903580       0.00515152       0.00020485      -0.00369389      -0.00574452
Mg       1.75811463       5.05074091       2.83661032      -0.00643676       0.01634858      -0.01365039
Mg       5.27667578       3.03606846       0.01997350      -0.01961896       0.00405407      -0.02112751
Mg       5.26776753       5.06217844       2.80538117      -0.01483826      -0.00270769       0.01592571
Mg       8.75236122       3.05270676      22.58395917       0.02654260      -0.00613749       0.00227638
Mg       8.76089872       5.06620946       2.84048266       0.01444322      -0.00897833      -0.01013990
Mg      -3.51022141       6.08930524      22.57432689       0.00657788      -0.01778780       0.00884545
Mg      -3.51391557       8.10502302       2.82566181       0.00715195      -0.00863731      -0.00105886