120
Lattice="15.9435 0.0 0.0 -6.3774 11.04598082 0.0 0.0 0.0 15.3984" Properties=species:S:1:pos:R:3:forces:R:3 energy=-180.53392783 stress="-0.0012128842068795716 0.00036670045759788935 -5.274075211371353e-09 0.00036670045759788935 0.0017517815474042899 1.647134258320592e-08 -5.274075211371353e-09 1.647134258320592e-08 -0.0008507039126057382" free_energy=-180.53300763 pbc="T T T"
Mg       0.00000000       0.00000000       0.00000000       0.00007065      -0.00129174       0.00000386
Mg       0.00000003       1.84099684       2.56640005      -0.00114822       0.00354381       0.00000803
Mg       3.18870000       0.00000000       0.00000000      -0.00093223       0.00007933       0.00000313
Mg       3.18870003       1.84099684       2.56640005       0.00371533       0.00218715       0.00000818
Mg       6.37740000       0.00000000       0.00000000       0.00268203      -0.00565708       0.00000294
Mg       6.37740003       1.84099684       2.56640005      -0.00178980       0.00102147       0.00000833
Mg       9.56610000       0.00000000       0.00000000      -0.00248873       0.00325329       0.00000330
Mg       9.56610003       1.84099684       2.56640005      -0.00004357       0.00341243       0.00000760
Mg      12.75480000       0.00000000       0.00000000       0.00131228      -0.00239737       0.00000350
Mg      12.75480003       1.84099684       2.56640005       0.00165092      -0.00011200       0.00000890
Mg      -1.59435000       2.76149521       0.00000000       0.00007113      -0.00129082       0.00000368
Mg      -1.59434997       4.60249205       2.56640005      -0.00114909       0.00354278       0.00000799
Mg       1.59435000       2.76149521       0.00000000      -0.00093158       0.00007893       0.00000224
Mg       1.59435003       4.60249205       2.56640005       0.00371448       0.00218730       0.00000923
Mg       4.78305000       2.76149521       0.00000000       0.00268197      -0.00565705       0.00000321
Mg       4.78305003       4.60249205       2.56640005      -0.00179025       0.00102028       0.00000977
Mg       7.97175000       2.76149521       0.00000000      -0.00248989       0.00325201       0.00000292
Mg       7.97175003       4.60249205       2.56640005      -0.00004302       0.00341250       0.00000688
Mg      11.16045000       2.76149521       0.00000000       0.00131243      -0.00239677       0.00000334
Mg      11.16045003       4.60249205       2.56640005       0.00164997      -0.00011014       0.00000846
Mg      -3.18870000       5.52299041       0.00000000       0.00007154      -0.00129132       0.00000457
Mg      -3.18869997       7.36398725       2.56640005      -0.00115025       0.00354271       0.00000844
Mg       0.00000000       5.52299041       0.00000000      -0.00093148       0.00007771       0.00000279
Mg       0.00000003       7.36398725       2.56640005       0.00371555       0.00218769       0.00000915
Mg       3.18870000       5.52299041       0.00000000       0.00268128      -0.00565786       0.00000283
Mg       3.18870003       7.36398725       2.56640005      -0.00178887       0.00102029       0.00000878
Mg       6.37740000       5.52299041       0.00000000      -0.00248832       0.00325192       0.00000324
Mg       6.37740003       7.36398725       2.56640005      -0.00004048       0.00341292       0.00000760
Mg       9.56610000       5.52299041       0.00000000       0.00131081      -0.00239755       0.00000367
Mg       9.56610003       7.36398725       2.56640005       0.00165064      -0.00011105       0.00000884
Mg      -4.78305000       8.28448562       0.00000000       0.00007141      -0.00129166       0.00000358
Mg      -4.78304997      10.12548246       2.56640005      -0.00114970       0.00354265       0.00000795
Mg      -1.59435000       8.28448562       0.00000000      -0.00093213       0.00007924       0.00000393
Mg      -1.59434997      10.12548246       2.56640005       0.00371473       0.00218686       0.00000929
Mg       1.59435000       8.28448562       0.00000000       0.00268151      -0.00565792       0.00000350
Mg       1.59435003      10.12548246       2.56640005      -0.00179006       0.00101923       0.00000696
Mg       4.78305000       8.28448562       0.00000000      -0.00248849       0.00325350       0.00000227
Mg       4.78305003      10.12548246       2.56640005      -0.00004269       0.00341244       0.00000748
Mg       7.97175000       8.28448562       0.00000000       0.00131218      -0.00239746       0.00000326
Mg       7.97175003      10.12548246       2.56640005       0.00165037      -0.00011180       0.00000922
Mg       0.00000000       0.00000000       5.13279995       0.00007244      -0.00129050       0.00000435
Mg       0.00000003       1.84099684       7.69920000      -0.00114948       0.00354351      -0.00000453
Mg       3.18870000       0.00000000       5.13279995      -0.00093173       0.00007963       0.00000422
Mg       3.18870003       1.84099684       7.69920000       0.00371510       0.00218626      -0.00000407
Mg       6.37740000       0.00000000       5.13279995       0.00268099      -0.00565709       0.00000603
Mg       6.37740003       1.84099684       7.69920000      -0.00179013       0.00102072      -0.00000244
Mg       9.56610000       0.00000000       5.13279995      -0.00249068       0.00325303       0.00000327
Mg       9.56610003       1.84099684       7.69920000      -0.00004247       0.00341213      -0.00000315
Mg      12.75480000       0.00000000       5.13279995       0.00131074      -0.00239712       0.00000309
Mg      12.75480003       1.84099684       7.69920000       0.00165066      -0.00011057      -0.00000281
Mg      -1.59435000       2.76149521       5.13279995       0.00007251      -0.00128986       0.00000348
Mg      -1.59434997       4.60249205       7.69920000      -0.00114872       0.00354370      -0.00000335
Mg       1.59435000       2.76149521       5.13279995      -0.00092983       0.00007959       0.00000382
Mg       1.59435003       4.60249205       7.69920000       0.00371589       0.00218702      -0.00000506
Mg       4.78305000       2.76149521       5.13279995       0.00268160      -0.00565613       0.00000528
Mg       4.78305003       4.60249205       7.69920000      -0.00179023       0.00101903      -0.00000350
Mg       7.97175000       2.76149521       5.13279995      -0.00248878       0.00325297       0.00000481
Mg       7.97175003       4.60249205       7.69920000      -0.00004264       0.00341176      -0.00000231
Mg      11.16045000       2.76149521       5.13279995       0.00131006      -0.00239693       0.00000307
Mg      11.16045003       4.60249205       7.69920000       0.00165158      -0.00011161      -0.00000210
Mg      -3.18870000       5.52299041       5.13279995       0.00007321      -0.00129049       0.00000428
Mg      -3.18869997       7.36398725       7.69920000      -0.00114958       0.00354301      -0.00000317
Mg       0.00000000       5.52299041       5.13279995      -0.00093079       0.00007900       0.00000494
Mg       0.00000003       7.36398725       7.69920000       0.00371489       0.00218642      -0.00000422
Mg       3.18870000       5.52299041       5.13279995       0.00268127      -0.00565582       0.00000629
Mg       3.18870003       7.36398725       7.69920000      -0.00178969       0.00101971      -0.00000241
Mg       6.37740000       5.52299041       5.13279995      -0.00249018       0.00325324       0.00000327
Mg       6.37740003       7.36398725       7.69920000      -0.00004196       0.00341063      -0.00000253
Mg       9.56610000       5.52299041       5.13279995       0.00131297      -0.00239597       0.00000371
Mg       9.56610003       7.36398725       7.69920000       0.00165205      -0.00011191      -0.00000313
Mg      -4.78305000       8.28448562       5.13279995       0.00007214      -0.00129080       0.00000432
Mg      -4.78304997      10.12548246       7.69920000      -0.00115018       0.00354282      -0.00000382
Mg      -1.59435000       8.28448562       5.13279995      -0.00093154       0.00007965       0.00000543
Mg      -1.59434997      10.12548246       7.69920000       0.00371494       0.00218718      -0.00000383
Mg       1.59435000       8.28448562       5.13279995       0.00268181      -0.00565692       0.00000568
Mg       1.59435003      10.12548246       7.69920000      -0.00179101       0.00101987      -0.00000253
Mg       4.78305000       8.28448562       5.13279995      -0.00249039       0.00325332       0.00000422
Mg       4.78305003      10.12548246       7.69920000      -0.00004193       0.00341244      -0.00000378
Mg       7.97175000       8.28448562       5.13279995       0.00131275      -0.00239668       0.00000357
Mg       7.97175003      10.12548246       7.69920000       0.00165122      -0.00011158      -0.00000323
Mg       0.00000000       0.00000000      10.26560005       0.00007245      -0.00129017      -0.00000878
Mg       0.00000003       1.84099684      12.83199995      -0.00115050       0.00354322      -0.00000458
Mg       3.18870000       0.00000000      10.26560005      -0.00093235       0.00007972      -0.00000984
Mg       3.18870003       1.84099684      12.83199995       0.00371609       0.00218775      -0.00000391
Mg       6.37740000       0.00000000      10.26560005       0.00268243      -0.00565702      -0.00000850
Mg       6.37740003       1.84099684      12.83199995      -0.00179005       0.00102212      -0.00000520
Mg       9.56610000       0.00000000      10.26560005      -0.00248856       0.00325400      -0.00000737
Mg       9.56610003       1.84099684      12.83199995      -0.00004230       0.00341270      -0.00000499
Mg      12.75480000       0.00000000      10.26560005       0.00131227      -0.00239717      -0.00000734
Mg      12.75480003       1.84099684      12.83199995       0.00164943      -0.00011266      -0.00000467
Mg      -1.59435000       2.76149521      10.26560005       0.00007273      -0.00129022      -0.00000823
Mg      -1.59434997       4.60249205      12.83199995      -0.00114989       0.00354245      -0.00000377
Mg       1.59435000       2.76149521      10.26560005      -0.00093210       0.00007932      -0.00000990
Mg       1.59435003       4.60249205      12.83199995       0.00371510       0.00218637      -0.00000458
Mg       4.78305000       2.76149521      10.26560005       0.00268281      -0.00565714      -0.00000864
Mg       4.78305003       4.60249205      12.83199995      -0.00178878       0.00102254      -0.00000445
Mg       7.97175000       2.76149521      10.26560005      -0.00248964       0.00325292      -0.00000818
Mg       7.97175003       4.60249205      12.83199995      -0.00004304       0.00341186      -0.00000367
Mg      11.16045000       2.76149521      10.26560005       0.00131124      -0.00239684      -0.00000776
Mg      11.16045003       4.60249205      12.83199995       0.00165052      -0.00010994      -0.00000441
Mg      -3.18870000       5.52299041      10.26560005       0.00007193      -0.00129021      -0.00000753
Mg      -3.18869997       7.36398725      12.83199995      -0.00114935       0.00354341      -0.00000472
Mg       0.00000000       5.52299041      10.26560005      -0.00093184       0.00007794      -0.00000865
Mg       0.00000003       7.36398725      12.83199995       0.00371632       0.00218804      -0.00000367
Mg       3.18870000       5.52299041      10.26560005       0.00268120      -0.00565700      -0.00000762
Mg       3.18870003       7.36398725      12.83199995      -0.00178934       0.00102170      -0.00000367
Mg       6.37740000       5.52299041      10.26560005      -0.00248998       0.00325241      -0.00000722
Mg       6.37740003       7.36398725      12.83199995      -0.00004354       0.00341276      -0.00000540
Mg       9.56610000       5.52299041      10.26560005       0.00131122      -0.00239741      -0.00000655
Mg       9.56610003       7.36398725      12.83199995       0.00164820      -0.00011057      -0.00000345
Mg      -4.78305000       8.28448562      10.26560005       0.00007207      -0.00128960      -0.00000875
Mg      -4.78304997      10.12548246      12.83199995      -0.00115039       0.00354339      -0.00000429
Mg      -1.59435000       8.28448562      10.26560005      -0.00093094       0.00007885      -0.00000983
Mg      -1.59434997      10.12548246      12.83199995       0.00371454       0.00218755      -0.00000444
Mg       1.59435000       8.28448562      10.26560005       0.00268186      -0.00565643      -0.00000873
Mg       1.59435003      10.12548246      12.83199995      -0.00179014       0.00102165      -0.00000365
Mg       4.78305000       8.28448562      10.26560005      -0.00249008       0.00325303      -0.00000815
Mg       4.78305003      10.12548246      12.83199995      -0.00004246       0.00341326      -0.00000400
Mg       7.97175000       8.28448562      10.26560005       0.00131318      -0.00239703      -0.00000780
Mg       7.97175003      10.12548246      12.83199995       0.00164911      -0.00011129      -0.00000437
120
Lattice="15.9435 0.0 0.0 -6.3774 11.04598082 0.0 0.0 0.0 15.3984" Properties=species:S:1:pos:R:3:forces:R:3 energy=-180.51739813 stress="-0.0012222577739414236 0.00035058309596324876 2.669118962592717e-07 0.00035058309596324876 0.001672421588989398 -2.313727432964924e-08 2.669118962592717e-07 -2.313727432964924e-08 -0.0008386357986731147" free_energy=-180.51645952 pbc="T T T"
Mg       9.55271062      11.03801534      15.39364513       0.04207056       0.02030165       0.00902774
Mg       0.00080001       1.84582404       2.56383529      -0.00434701      -0.01349154       0.00664892
Mg       3.19883936       0.00428485       0.01575826      -0.04263751      -0.01602625      -0.05440437
Mg       3.19402156       1.84305957       2.57208422      -0.02070491      -0.00358941      -0.01691894
Mg      -0.00223292      11.03788445      15.39654218       0.02083264       0.02295380       0.01140069
Mg       6.37512164       1.83933564       2.56607561       0.00759274      -0.00021045      -0.00999154
Mg       9.57109430       0.00285649      15.39457242      -0.01452346       0.00331036       0.01093859
Mg       9.56116345       1.84617520       2.57099093       0.00852229      -0.02006825      -0.01525486
Mg      12.76065560       0.00017917      15.39353241      -0.01924310      -0.01231519       0.00415501
Mg      12.75186117       1.83814642       2.55821442       0.01069803       0.00329242       0.03902589
Mg      14.34332147       2.76309367      15.39584279       0.02172573      -0.01157831       0.00862735
Mg      -1.59730044       4.60357146       2.56439764       0.00703858      -0.00994700       0.01502024
Mg       1.59700124       2.76207843      15.39225742      -0.01104204      -0.01825486       0.01619886
Mg       1.59647945       4.59307976       2.55683226      -0.01196930       0.02865092       0.02221956
Mg       4.77977387       2.75894425      15.39019204       0.01763315       0.00586000       0.02266900
Mg       4.77862804       4.59625228       2.56251180       0.01672093       0.01412618       0.00657339
Mg       7.97765885       2.76179864       0.00107435      -0.02777378      -0.00542609      -0.00718297
Mg       7.97656793       4.61028399       2.57080507      -0.01863132      -0.00579064      -0.00578297
Mg      11.16078060       2.76273081       0.00946601      -0.00690705      -0.00753604      -0.02643166
Mg      11.16957383       4.59235327       2.57647076      -0.01729375       0.04046272      -0.02898876
Mg      12.76123429       5.51163437      15.39121418      -0.02613351       0.03442210       0.02850150
Mg      -3.18262164       7.36065545       2.56172664      -0.02236697       0.00324362       0.01160999
Mg      -0.00289980       5.52460091      15.39670879       0.00452100      -0.01447334       0.00696615
Mg      -0.00649506       7.36075056       2.56050924       0.02471598      -0.00065710       0.02147025
Mg       3.18174631       5.53332381      15.39288984       0.01485862      -0.02437414       0.00446782
Mg       3.18848875       7.36431620       2.56796253      -0.01107702      -0.01016392       0.00099671
Mg       6.37600698       5.52112397       0.00034492      -0.00262862       0.00364691       0.00673523
Mg       6.36933913       7.36192806       2.56883069       0.01998731       0.00039507       0.01342560
Mg       9.56378465       5.51711538      15.39799502       0.01597977       0.01423632      -0.00132359
Mg       9.56729611       7.36977811       2.56020697       0.00139629      -0.01781087       0.02495228
Mg      11.15801530       8.28600521       0.00112023       0.00690057      -0.01584886      -0.02187157
Mg      -4.78037688      10.11744319       2.56007085      -0.01252653       0.02599644       0.01126948
Mg      -1.59540167       8.28568775       0.00033584      -0.01010299      -0.00590825       0.00090940
Mg      -1.59129172      10.12589812       2.56771523       0.00660767      -0.00480701       0.00971133
Mg       1.59067611       8.28507635       0.00504852       0.01541168       0.00115691      -0.00531319
Mg       1.59780017      10.11844981       2.56967006      -0.01023747       0.01977759      -0.01213636
Mg       4.78001158       8.28520703      15.39756464       0.00634696       0.00224488      -0.00717833
Mg       4.78646927      10.11607073       2.56206371      -0.01085852       0.03592299       0.01601289
Mg       7.96678931       8.28003994       0.00440379       0.00844507       0.00350423      -0.01613899
Mg       7.97017516      10.13023797       2.56902964       0.00523833      -0.00468746      -0.00452492
Mg       0.00636162       0.00088865       5.13267337      -0.01775954       0.00284727      -0.00895012
Mg       0.00726434       1.84536144       7.69506507      -0.01202550      -0.00423477       0.01118867
Mg       3.18345618       0.00254389       5.12451099       0.01611221      -0.02381834       0.02269214
Mg       3.19894647       1.83822839       7.69662754      -0.00922309       0.01094589       0.01377159
Mg       6.38015443       0.00039732       5.13889294      -0.01541537      -0.00474481      -0.01229623
Mg       6.37588119       1.84356790       7.70003875       0.01388034      -0.00220801       0.00610439
Mg       9.55512902       0.00939339       5.13106455       0.03405621      -0.02927765       0.00163546
Mg       9.56832141       1.84103086       7.69333367      -0.01772477      -0.00737862       0.02811583
Mg      12.75860597       0.00178569       5.13485841      -0.01650140       0.00745535      -0.00497210
Mg      12.75397799       1.84713896       7.69580080       0.00399545      -0.01842511       0.01742950
Mg      -1.59481054       2.76703852       5.14724965      -0.01361677      -0.01542137      -0.04803889
Mg      -1.58772672       4.60756546       7.70558279      -0.01386842      -0.00364599       0.00017538
Mg       1.59676267       2.75870344       5.14063496      -0.00931134       0.01400103      -0.02690926
Mg       1.60223849       4.60273959       7.69957449       0.00150230       0.00864389      -0.01303778
Mg       4.77904595       2.75624560       5.12992276       0.02277282       0.02124737       0.01286248
Mg       4.79049431       4.60593464       7.70421572      -0.02879196      -0.01158070      -0.02027229
Mg       7.96911945       2.76079577       5.13068190      -0.02287988       0.01686355       0.00517836
Mg       7.96995565       4.60131554       7.69505567       0.01390630      -0.00508531       0.01792384
Mg      11.14476663       2.76057021       5.13581542       0.04677241      -0.01146907      -0.01117973
Mg      11.16426263       4.59256856       7.69891498      -0.00756675       0.02951448       0.00879138
Mg      12.74797596       5.52183069       5.13990893       0.01912222       0.00511668      -0.00990732
Mg      -3.18024959       7.37686907       7.69304849      -0.01775457      -0.03806879       0.02859115
Mg      -0.01051691       5.51835651       5.13970952       0.03028325       0.00994779      -0.02688122
Mg       0.00013208       7.36699143       7.69668467       0.01709267      -0.00182626       0.01840577
Mg       3.18553276       5.52052506       5.12376602       0.00822648       0.00298839       0.02311187
Mg       3.19610260       7.37311233       7.69523799      -0.03716769      -0.02948796       0.00990202
Mg       6.37863361       5.53241307       5.14534487      -0.01389399      -0.01910077      -0.04638443
Mg       6.37012131       7.35797912       7.69360068       0.03539085       0.03261318       0.01138571
Mg       9.57069520       5.51553360       5.12984176      -0.01747535       0.03490473       0.00941808
Mg       9.56895449       7.35365826       7.70230509      -0.00337747       0.01544153      -0.01189279
Mg      -4.78006104       8.28296315       5.14132158      -0.00534819       0.00082047      -0.03230216
Mg      -4.79051532      10.13181258       7.69649019       0.01300458      -0.01258188       0.00459594
Mg      -1.58943054       8.28722126       5.13391110      -0.01679701      -0.00367075      -0.01536497
Mg      -1.59791133      10.12170594       7.70062974       0.01294587       0.02009463      -0.00535377
Mg       1.58891531       8.28825704       5.13231998       0.00920824      -0.02569923      -0.00232676
Mg       1.59590143      10.12002530       7.70109385      -0.00449033       0.01540274      -0.00242358
Mg       4.77403449       8.29242370       5.14279798       0.01532283      -0.00869756      -0.03788332
Mg       4.78179614      10.12258719       7.69689501       0.01015208       0.02723268       0.00937364
Mg       7.97280377       8.29745183       5.13486688       0.00410827      -0.03952803      -0.00187296
Mg       7.97268853      10.12276724       7.70735715      -0.00264564       0.01122192      -0.01130783
Mg       0.00170713       0.00921169      10.26315201       0.00050025      -0.02832000       0.00127020
Mg      -0.00866284       1.84379611      12.83486805       0.01969325      -0.00737614      -0.00881712
Mg       3.18787853       0.00071699      10.26035628       0.01144576       0.00622965       0.01350578
Mg       3.19123349       1.84146983      12.83096256      -0.01629570      -0.01499362      -0.00256603
Mg       6.38680335       0.00214480      10.25845196      -0.02402997       0.00262077       0.01174241
Mg       6.37032459       1.83767509      12.82677265       0.02462136      -0.00036069       0.01736616
Mg       3.18829650      11.04267884      10.27075621       0.01184755       0.00929407      -0.02168896
Mg       9.56872640       1.84924874      12.82371607      -0.01218332      -0.01311807       0.03883195
Mg       6.38037949      11.04566634      10.26727216      -0.01608195      -0.01082097      -0.01084292
Mg      12.74673964       1.83605818      12.83768473       0.01264281       0.01993188      -0.01403710
Mg      -1.58814909       2.75187692      10.26332525      -0.01994328       0.02574674       0.01016315
Mg      -1.59726686       4.59990265      12.83741295       0.01056319       0.00501800      -0.03698335
Mg       1.59616198       2.76372760      10.26309104       0.00578311      -0.01013145       0.00824640
Mg       1.59497278       4.59526300      12.83638834       0.00309583       0.03093853      -0.01998839
Mg       4.78910531       2.76891126      10.27348603       0.00303720      -0.01721498      -0.02082618
Mg       4.78457704       4.60132957      12.83715210      -0.01856084       0.02218568      -0.01695222
Mg       7.98750317       2.76062335      10.27579441      -0.05105649       0.00741700      -0.04331286
Mg       7.96336506       4.59943750      12.82738659       0.01577020       0.00863129       0.00976347
Mg      11.15815149       2.75980395      10.27092836       0.02549215      -0.00917589      -0.02161621
Mg      11.16215366       4.60253004      12.83044255      -0.01011970       0.00140801       0.00940325
Mg      12.74769631       5.51671751      10.26252792       0.02539976       0.02207393       0.00492497
Mg      -3.18594158       7.36140249      12.83802380      -0.00965690       0.01000673      -0.01588616
Mg       0.00505326       5.51671662      10.25889466      -0.01680813       0.02509857       0.03582700
Mg       0.00243247       7.36559786      12.84470116      -0.00011939      -0.01534175      -0.03456206
Mg       3.18400984       5.52387807      10.26167854       0.00849104      -0.00171528       0.02095722
Mg       3.18851209       7.38123687      12.83020419       0.00213157      -0.03982290       0.00218809
Mg       6.37066872       5.53772509      10.26071506       0.02216358      -0.04792264       0.01437898
Mg       6.38671186       7.35968561      12.83242664      -0.02904872       0.02529566       0.00222947
Mg       9.56257674       5.51592827      10.26662543       0.01056491       0.01124289      -0.00901684
Mg       9.56710195       7.36314577      12.82208615       0.00773430      -0.00008289       0.03083659
Mg      -4.77709236       8.28629241      10.26052643      -0.00677103      -0.01115844       0.00287429
Mg      -4.78799322      10.12443994      12.82327599       0.02598259       0.01106327       0.02950680
Mg      -1.59133158       8.28920501      10.27447985       0.00148513      -0.02627262      -0.01539398
Mg      -1.59069167      10.12460806      12.82972899      -0.02033861       0.00827189       0.00337344
Mg       1.59340500       8.29311562      10.27351498      -0.00463872      -0.03684529      -0.01686987
Mg       1.58764946      10.12968932      12.83436976       0.01101503       0.00746689       0.00284091
Mg       4.77873706       8.27415608      10.25886264       0.01442672       0.04455503       0.01890625
Mg       4.77631728      10.13059862      12.83042962       0.02824065      -0.01350819      -0.00476417
Mg       7.97658767       8.27567545      10.26742769      -0.00949808       0.02558410      -0.01845627
Mg       7.97491415      10.12739208      12.82274243      -0.01463501      -0.01272505       0.01470630
120
Lattice="15.9435 0.0 0.0 -6.3774 11.04598082 0.0 0.0 0.0 15.3984" Properties=species:S:1:pos:R:3:forces:R:3 energy=-180.468108 stress="-0.0012605270815845373 0.0003269608314084819 -3.871857771150421e-06 0.0003269608314084819 0.0016056593365564608 -5.998177651101574e-06 -3.871857771150421e-06 -5.998177651101574e-06 -0.0008990793345122816" free_energy=-180.4671315 pbc="T T T"
Mg       9.53933785      11.03005782      15.38889395       0.08628296       0.03953241       0.01839912
Mg       0.00159818       1.85064584       2.56127315      -0.00330343      -0.03161973       0.01631616
Mg       3.20896170       0.00856329       0.03149481      -0.07642232      -0.02714202      -0.10031751
Mg       3.19933473       1.84512075       2.57776191      -0.04327591      -0.01147715      -0.03814539
Mg      -0.00445771      11.02979691      15.39468883       0.04199155       0.05023586       0.02440259
Mg       6.37284625       1.83767421       2.56574716       0.01782997      -0.00103305      -0.01876762
Mg       9.57608280       0.00571420      15.39074930      -0.02880826       0.00086151       0.02415126
Mg       9.55623002       1.85134560       2.57557580       0.01460808      -0.04073799      -0.03131178
Mg      12.76650352       0.00035314      15.38866652      -0.03803954      -0.02533614       0.01225559
Mg      12.74892638       1.83529722       2.55004449       0.01924907       0.00341593       0.08046777
Mg      14.33750136       2.76468749      15.39328912       0.04250505      -0.02067716       0.02009016
Mg      -1.60024814       4.60464690       2.56240124       0.01947408      -0.02295387       0.03058464
Mg       1.59964790       2.76265415      15.38612132      -0.01979500      -0.03296742       0.02776022
Mg       1.59860411       4.58367875       2.54727324      -0.02801676       0.05294202       0.04568075
Mg       4.77650475       2.75639550      15.38199316       0.02897300       0.01635876       0.04683951
Mg       4.77421258       4.59001804       2.55862617       0.03534700       0.03126278       0.01233349
Mg       7.98355661       2.76209975       0.00214592      -0.05030220      -0.01355865      -0.01423260
Mg       7.98137847       4.61807351       2.57520794      -0.03925239      -0.02171590      -0.01072547
Mg      11.16110837       2.76396332       0.01892171      -0.01799196      -0.01589951      -0.05379225
Mg      11.17869067       4.58223040       2.58653007      -0.03584047       0.07236312      -0.05849856
Mg      12.76765818       5.50029191      15.38403976      -0.05957424       0.06445342       0.05304878
Mg      -3.17655246       7.35732487       2.55705784      -0.04478072       0.00211803       0.02772241
Mg      -0.00579792       5.52620545      15.39502036       0.01149649      -0.02925576       0.01310366
Mg      -0.01298050       7.35751342       2.55462705       0.04832643      -0.00353308       0.04363339
Mg       3.17479822       5.54364750      15.38738137       0.03250014      -0.03630240       0.01016676
Mg       3.18827281       7.36464106       2.56952546      -0.01810866      -0.02202409      -0.00007598
Mg       6.37461279       5.51925875       0.00069262      -0.00485006       0.00035089       0.01284343
Mg       6.36128597       7.35986898       2.57126672       0.03343844      -0.00007547       0.02414168
Mg       9.56147552       5.51124588      15.39758974       0.03123611       0.03371399      -0.00727332
Mg       9.56849267       7.37556178       2.55402390       0.00082168      -0.03732834       0.05258480
Mg      11.15558325       8.28751829       0.00223184       0.01098460      -0.02806564      -0.04122141
Mg      -4.77770886      10.10941409       2.55374611      -0.02045791       0.04804631       0.02813707
Mg      -1.59645728       8.28688734       0.00067214      -0.01924327      -0.00758613       0.00168127
Mg      -1.58823082      10.12631168       2.56903456       0.01162195      -0.01297095       0.02035846