120
Lattice="15.9435 -0.03985875 0.0 -6.40501495 11.06192432 0.0 0.0 0.0 15.3984" Properties=species:S:1:pos:R:3:forces:R:3 energy=-180.53373779 stress="-0.0011078494386678297 -8.216998568751054e-05 -5.373939357385486e-09 -8.216998568751054e-05 0.0014006811738892153 1.37562861134467e-08 -5.373939357385486e-09 1.37562861134467e-08 -0.0006315614126829232" free_energy=-180.53441321 pbc="T T T"
Mg       0.00000000       0.00000000       0.00000000       0.00456657      -0.00133031      -0.00000162
Mg      -0.00460246       1.84099684       2.56640005      -0.00736932       0.00163696      -0.00001268
Mg       3.18870000      -0.00797175       0.00000000       0.00379253       0.00064835      -0.00000032
Mg       3.18409754       1.83302509       2.56640005      -0.00116036       0.00344366      -0.00001258
Mg       6.37740000      -0.01594350       0.00000000       0.00746739      -0.00678451      -0.00000130
Mg       6.37279754       1.82505334       2.56640005      -0.00592442       0.00118731      -0.00001264
Mg       9.56610000      -0.02391525       0.00000000       0.00161238       0.00432384      -0.00000202
Mg       9.56149754       1.81708159       2.56640005      -0.00260716       0.00205018      -0.00001438
Mg      12.75480000      -0.03188700       0.00000000       0.00516031      -0.00320610      -0.00000108
Mg      12.75019754       1.80910984       2.56640005      -0.00087528       0.00495597      -0.00001297
Mg      -1.60125374       2.76548108       0.00000000       0.00456904      -0.00133149      -0.00000285
Mg      -1.60585620       4.60647792       2.56640005      -0.00736660       0.00163917      -0.00001385
Mg       1.58744626       2.75750933       0.00000000       0.00379267       0.00064802      -0.00000073
Mg       1.58284380       4.59850617       2.56640005      -0.00115793       0.00344076      -0.00001320
Mg       4.77614626       2.74953758       0.00000000       0.00746523      -0.00678523       0.00000009
Mg       4.77154380       4.59053442       2.56640005      -0.00592619       0.00118838      -0.00001270
Mg       7.96484626       2.74156583       0.00000000       0.00161057       0.00432440      -0.00000184
Mg       7.96024380       4.58256267       2.56640005      -0.00260917       0.00205075      -0.00001464
Mg      11.15354626       2.73359408       0.00000000       0.00516266      -0.00320704      -0.00000230
Mg      11.14894380       4.57459092       2.56640005      -0.00087533       0.00495706      -0.00001055
Mg      -3.20250747       5.53096216       0.00000000       0.00456898      -0.00133157      -0.00000237
Mg      -3.20710993       7.37195900       2.56640005      -0.00736733       0.00163962      -0.00001372
Mg      -0.01380747       5.52299041       0.00000000       0.00379366       0.00064712      -0.00000171
Mg      -0.01840993       7.36398725       2.56640005      -0.00115622       0.00344106      -0.00001249
Mg       3.17489253       5.51501866       0.00000000       0.00746646      -0.00678339      -0.00000106
Mg       3.17029007       7.35601550       2.56640005      -0.00592475       0.00118871      -0.00001426
Mg       6.36359253       5.50704691       0.00000000       0.00161074       0.00432652      -0.00000246
Mg       6.35899007       7.34804375       2.56640005      -0.00260967       0.00205254      -0.00001468
Mg       9.55229253       5.49907516       0.00000000       0.00516089      -0.00320555      -0.00000172
Mg       9.54769007       7.34007200       2.56640005      -0.00087687       0.00495869      -0.00001178
Mg      -4.80376121       8.29644324       0.00000000       0.00456979      -0.00132916      -0.00000185
Mg      -4.80836367      10.13744008       2.56640005      -0.00737014       0.00163976      -0.00001242
Mg      -1.61506121       8.28847149       0.00000000       0.00379585       0.00064704      -0.00000052
Mg      -1.61966367      10.12946833       2.56640005      -0.00115930       0.00344311      -0.00001226
Mg       1.57363879       8.28049974       0.00000000       0.00746812      -0.00678565      -0.00000202
Mg       1.56903633      10.12149658       2.56640005      -0.00592493       0.00118881      -0.00001370
Mg       4.76233879       8.27252799       0.00000000       0.00161255       0.00432600      -0.00000195
Mg       4.75773633      10.11352483       2.56640005      -0.00260829       0.00205015      -0.00001379
Mg       7.95103879       8.26455624       0.00000000       0.00516042      -0.00320309      -0.00000129
Mg       7.94643633      10.10555308       2.56640005      -0.00087759       0.00495827      -0.00001009
Mg       0.00000000       0.00000000       5.13279995       0.00456802      -0.00133180      -0.00000803
Mg      -0.00460246       1.84099684       7.69920000      -0.00736911       0.00163957       0.00000315
Mg       3.18870000      -0.00797175       5.13279995       0.00379284       0.00064694      -0.00000875
Mg       3.18409754       1.83302509       7.69920000      -0.00116045       0.00344271      -0.00000021
Mg       6.37740000      -0.01594350       5.13279995       0.00746689      -0.00678655      -0.00000868
Mg       6.37279754       1.82505334       7.69920000      -0.00592808       0.00118980       0.00000268
Mg       9.56610000      -0.02391525       5.13279995       0.00161354       0.00432412      -0.00001074
Mg       9.56149754       1.81708159       7.69920000      -0.00261014       0.00205182       0.00000196
Mg      12.75480000      -0.03188700       5.13279995       0.00516361      -0.00320730      -0.00000945
Mg      12.75019754       1.80910984       7.69920000      -0.00087847       0.00495875       0.00000185
Mg      -1.60125374       2.76548108       5.13279995       0.00457075      -0.00133351      -0.00001105
Mg      -1.60585620       4.60647792       7.69920000      -0.00736925       0.00164023       0.00000116
Mg       1.58744626       2.75750933       5.13279995       0.00379427       0.00064677      -0.00000950
Mg       1.58284380       4.59850617       7.69920000      -0.00115960       0.00344286       0.00000345
Mg       4.77614626       2.74953758       5.13279995       0.00746740      -0.00678521      -0.00000971
Mg       4.77154380       4.59053442       7.69920000      -0.00592683       0.00119174       0.00000280
Mg       7.96484626       2.74156583       5.13279995       0.00161224       0.00432528      -0.00001079
Mg       7.96024380       4.58256267       7.69920000      -0.00261125       0.00205351       0.00000130
Mg      11.15354626       2.73359408       5.13279995       0.00516320      -0.00320750      -0.00001052
Mg      11.14894380       4.57459092       7.69920000      -0.00087638       0.00495936       0.00000161
Mg      -3.20250747       5.53096216       5.13279995       0.00457079      -0.00133130      -0.00000864
Mg      -3.20710993       7.37195900       7.69920000      -0.00736978       0.00164129       0.00000122
Mg      -0.01380747       5.52299041       5.13279995       0.00379552       0.00064539      -0.00001026
Mg      -0.01840993       7.36398725       7.69920000      -0.00115836       0.00344361       0.00000158
Mg       3.17489253       5.51501866       5.13279995       0.00746962      -0.00678506      -0.00001068
Mg       3.17029007       7.35601550       7.69920000      -0.00592496       0.00118802       0.00000236
Mg       6.36359253       5.50704691       5.13279995       0.00161145       0.00432650      -0.00001081
Mg       6.35899007       7.34804375       7.69920000      -0.00260992       0.00205347       0.00000296
Mg       9.55229253       5.49907516       5.13279995       0.00516257      -0.00320585      -0.00001025
Mg       9.54769007       7.34007200       7.69920000      -0.00087914       0.00496166       0.00000215
Mg      -4.80376121       8.29644324       5.13279995       0.00456981      -0.00133055      -0.00001045
Mg      -4.80836367      10.13744008       7.69920000      -0.00737211       0.00164141       0.00000327
Mg      -1.61506121       8.28847149       5.13279995       0.00379411       0.00064670      -0.00000951
Mg      -1.61966367      10.12946833       7.69920000      -0.00116066       0.00344289       0.00000289
Mg       1.57363879       8.28049974       5.13279995       0.00747051      -0.00678562      -0.00000985
Mg       1.56903633      10.12149658       7.69920000      -0.00592662       0.00118837       0.00000116
Mg       4.76233879       8.27252799       5.13279995       0.00161323       0.00432465      -0.00001029
Mg       4.75773633      10.11352483       7.69920000      -0.00261029       0.00205007       0.00000061
Mg       7.95103879       8.26455624       5.13279995       0.00516339      -0.00320590      -0.00000957
Mg       7.94643633      10.10555308       7.69920000      -0.00087856       0.00496119       0.00000236
Mg       0.00000000       0.00000000      10.26560005       0.00456798      -0.00133058       0.00001295
Mg      -0.00460246       1.84099684      12.83199995      -0.00736817       0.00163902       0.00000909
Mg       3.18870000      -0.00797175      10.26560005       0.00379305       0.00064941       0.00001253
Mg       3.18409754       1.83302509      12.83199995      -0.00115900       0.00344258       0.00001211
Mg       6.37740000      -0.01594350      10.26560005       0.00746722      -0.00678521       0.00001203
Mg       6.37279754       1.82505334      12.83199995      -0.00592516       0.00118786       0.00001172
Mg       9.56610000      -0.02391525      10.26560005       0.00161364       0.00432480       0.00001141
Mg       9.56149754       1.81708159      12.83199995      -0.00260788       0.00204956       0.00001106
Mg      12.75480000      -0.03188700      10.26560005       0.00516389      -0.00320600       0.00001231
Mg      12.75019754       1.80910984      12.83199995      -0.00087610       0.00495707       0.00001093
Mg      -1.60125374       2.76548108      10.26560005       0.00457046      -0.00133132       0.00001091
Mg      -1.60585620       4.60647792      12.83199995      -0.00736802       0.00163931       0.00000997
Mg       1.58744626       2.75750933      10.26560005       0.00379455       0.00064783       0.00001178
Mg       1.58284380       4.59850617      12.83199995      -0.00115990       0.00344258       0.00001161
Mg       4.77614626       2.74953758      10.26560005       0.00746621      -0.00678494       0.00001157
Mg       4.77154380       4.59053442      12.83199995      -0.00592774       0.00118967       0.00001175
Mg       7.96484626       2.74156583      10.26560005       0.00161129       0.00432469       0.00001097
Mg       7.96024380       4.58256267      12.83199995      -0.00260932       0.00204997       0.00001070
Mg      11.15354626       2.73359408      10.26560005       0.00516404      -0.00320648       0.00001145
Mg      11.14894380       4.57459092      12.83199995      -0.00087547       0.00495809       0.00001003
Mg      -3.20250747       5.53096216      10.26560005       0.00457104      -0.00133014       0.00001221
Mg      -3.20710993       7.37195900      12.83199995      -0.00736581       0.00164220       0.00001097
Mg      -0.01380747       5.52299041      10.26560005       0.00379488       0.00064735       0.00001253
Mg      -0.01840993       7.36398725      12.83199995      -0.00115716       0.00344051       0.00001164
Mg       3.17489253       5.51501866      10.26560005       0.00746626      -0.00678570       0.00001238
Mg       3.17029007       7.35601550      12.83199995      -0.00592372       0.00118896       0.00001005
Mg       6.36359253       5.50704691      10.26560005       0.00161073       0.00432607       0.00001327
Mg       6.35899007       7.34804375      12.83199995      -0.00261019       0.00205303       0.00001113
Mg       9.55229253       5.49907516      10.26560005       0.00516128      -0.00320636       0.00001158
Mg       9.54769007       7.34007200      12.83199995      -0.00087739       0.00496036       0.00001295
Mg      -4.80376121       8.29644324      10.26560005       0.00456969      -0.00132961       0.00001184
Mg      -4.80836367      10.13744008      12.83199995      -0.00736913       0.00164050       0.00001101
Mg      -1.61506121       8.28847149      10.26560005       0.00379478       0.00064700       0.00001128
Mg      -1.61966367      10.12946833      12.83199995      -0.00115776       0.00344265       0.00001229
Mg       1.57363879       8.28049974      10.26560005       0.00746828      -0.00678562       0.00001215
Mg       1.56903633      10.12149658      12.83199995      -0.00592453       0.00118810       0.00001167
Mg       4.76233879       8.27252799      10.26560005       0.00161237       0.00432507       0.00001202
Mg       4.75773633      10.11352483      12.83199995      -0.00260926       0.00205089       0.00001005
Mg       7.95103879       8.26455624      10.26560005       0.00516267      -0.00320354       0.00001308
Mg       7.94643633      10.10555308      12.83199995      -0.00087851       0.00495928       0.00001321
120
Lattice="15.9435 -0.03985875 0.0 -6.40501495 11.06192432 0.0 0.0 0.0 15.3984" Properties=species:S:1:pos:R:3:forces:R:3 energy=-180.51874032 stress="-0.001115118531131671 -4.986877786302049e-05 5.156310417184188e-06 -4.986877786302049e-05 0.001405004779607879 -2.3240696135865124e-06 5.156310417184188e-06 -2.3240696135865124e-06 -0.0006192385016232538" free_energy=-180.51940614 pbc="T T T"
Mg      15.93033391      -0.03064867       0.00814960       0.03542845      -0.03938710      -0.02110805
Mg      -0.00259868       1.84508567       2.56153939      -0.00767411      -0.01084456       0.02849489
Mg       3.17994547      -0.00617015      15.39413418       0.01581917      -0.00481998       0.01163201
Mg       3.18725484       1.83231302       2.57631046      -0.00445445       0.00406754      -0.03173997
Mg      -0.03061346      11.04207983      15.39731842       0.00695052       0.00244089       0.00488955
Mg       6.37408212       1.83094931       2.56218643      -0.01563553      -0.00761392       0.01548605
Mg       3.16066129      11.03497979      15.39502236      -0.00161416       0.01059553       0.01621381
Mg       9.56969951       1.81998361       2.56012259      -0.02003135       0.00179916       0.01996735
Mg       6.34855970      11.02614990       0.00346218       0.00154198       0.01299485      -0.00728286
Mg      12.75230011       1.80820942       2.56339336      -0.00733312       0.00271917       0.00838799
Mg      14.34097288       2.72268343       0.00791786       0.00232629       0.01065774      -0.03045363
Mg      -1.60175625       4.60414195       2.56500680      -0.01751184       0.01301673      -0.00467874
Mg       1.58628285       2.75382069      15.39776004       0.00618733       0.01948861       0.00127294
Mg       1.57835843       4.59426515       2.56683829       0.01526824       0.01173627      -0.00038708
Mg       4.76550920       2.74945040      15.39471070       0.02522742      -0.00150773       0.00888308
Mg       4.76443093       4.59457070       2.56825510       0.02179290      -0.01016063      -0.00531156
Mg       7.96180558       2.73286351       0.00164347       0.00826146       0.02734137      -0.01150143
Mg       7.96256736       4.57679962       2.57224960      -0.00882991       0.01287150      -0.01568562
Mg      11.15616224       2.73286171      15.39462293      -0.00060601       0.00491862       0.01019138
Mg      11.15195217       4.58221513       2.56632860      -0.00737639      -0.02156320       0.00738224
Mg      -3.19502352       5.53186910      15.39294681      -0.01082660      -0.00859202       0.00867406
Mg      -3.21347337       7.36426000       2.56539053       0.02082417       0.02660113       0.00359959
Mg      -0.01205932       5.51795496      15.39158852       0.00545877       0.01766206       0.01417519
Mg      -0.01322977       7.35994762       2.56635940      -0.02015755      -0.00183913      -0.00324059
Mg       3.18144937       5.52908901       0.00892522      -0.00860666      -0.04527671      -0.02518157
Mg       3.17808068       7.35542882       2.55961028      -0.02003895       0.00917976       0.03438049
Mg       6.36225448       5.50078711      15.38643344       0.01092106       0.00872923       0.03546038
Mg       6.37335580       7.34451258       2.56036342      -0.04134671      -0.00119515       0.01605465
Mg       9.55407684       5.50035158       0.00269518       0.00163435      -0.00817091      -0.00287880
Mg       9.54028547       7.34067142       2.56827635       0.01910412       0.00529809      -0.00581687
Mg      -4.79597539       8.29906121       0.00038388      -0.02995643      -0.00709787       0.00650218
Mg      -4.80904860      10.14364948       2.57271278      -0.00324821      -0.02042790      -0.02181746
Mg      -1.62039534       8.28820558       0.00049768       0.02674195      -0.00408794      -0.00005860
Mg      -1.61310404      10.12364841       2.56476951      -0.02607677       0.00826724      -0.00692932
Mg       1.57843127       8.27813078       0.01011475      -0.01144737       0.00657217      -0.03063163
Mg       1.56209779      10.12375304       2.56935824       0.01620354      -0.00521136      -0.01260351
Mg       4.76928154       8.27382797       0.00444613      -0.00765411       0.00124663      -0.00608837
Mg       4.75371096      10.11496898       2.56596073       0.01136705       0.00039388       0.00547193
Mg       7.94551652       8.26826203       0.00258524       0.03481384      -0.00985727      -0.01415995
Mg       7.94469693      10.10404812       2.57300042      -0.00048556       0.01764299       0.00293708
Mg       0.01093322       0.00185069       5.13702527      -0.01986747      -0.01525144       0.00468760
Mg      -0.00375187       1.84406570       7.70344211      -0.00380526      -0.00073227      -0.00434250
Mg       3.19508396      -0.00789371       5.12050109      -0.00108525      -0.00957005       0.04042940
Mg       3.19971206       1.84080623       7.70146880      -0.05287085      -0.02271489      -0.00801641
Mg      -0.02587558      11.04291631       5.12776637      -0.00110841       0.01532992       0.00285715
Mg       6.37099451       1.81729522       7.70368494       0.00220363       0.02191093      -0.01354619
Mg       9.55818748      -0.02327833       5.12578167       0.02480254       0.00307514       0.02106674
Mg       9.55734423       1.82855829       7.69979576       0.00634467      -0.04012660      -0.00695121
Mg       6.34717378      11.02958831       5.13925357       0.01307157      -0.00533534      -0.00438712
Mg      12.74834971       1.81243342       7.70508327       0.00417270      -0.01411992      -0.00586785
Mg      14.33843253       2.72512961       5.13038563       0.02437526      -0.01830816       0.00401841
Mg      -1.61007904       4.60643192       7.68834782      -0.00564533      -0.01092390       0.02477638
Mg       1.58917234       2.74880503       5.13627383       0.00006621       0.02723446       0.00454228
Mg       1.57325074       4.61320520       7.69811549       0.02481248      -0.04320947      -0.00210844
Mg       4.77351299       2.75278956       5.13858651       0.02254837      -0.01317170      -0.01847301
Mg       4.76388926       4.59176816       7.69484456       0.02200005      -0.00942177       0.01390539
Mg       7.95848395       2.74203771       5.13935074       0.02415350       0.00262935      -0.01512460
Mg       7.96602363       4.58585680       7.70463225      -0.03338682      -0.00869578      -0.01404268
Mg      11.16602384       2.72694075       5.13498236      -0.03690282       0.02524937      -0.00644418
Mg      11.14575256       4.56867575       7.71143618       0.00839799       0.02841260      -0.04185756
Mg      -3.19248645       5.53220098       5.13440739      -0.02446027      -0.01347244      -0.00426525
Mg      -3.20578090       7.36557313       7.69868662      -0.02781496       0.02042126       0.00031459
Mg      -0.01801875       5.51343319       5.13123778       0.01974820       0.01109835      -0.01025522
Mg      -0.02117843       7.34875424       7.69766262       0.00350065       0.05212255       0.00056753
Mg       3.17690848       5.51765503       5.13162721      -0.00912223      -0.01847321      -0.00758275
Mg       3.17381040       7.34558113       7.69398025      -0.01509936       0.03650601       0.01416450
Mg       6.36765114       5.50760971       5.13555226      -0.00843928       0.00116212      -0.01028242
Mg       6.35954210       7.34381808       7.69422201      -0.00646469       0.01390085      -0.00050956
Mg       9.55113766       5.50229572       5.13997730       0.02409443      -0.02322491      -0.00678510
Mg       9.53996048       7.34244664       7.70713618       0.02630280       0.00592392      -0.01978964
Mg      -4.79482806       8.28419850       5.12841633      -0.00772580       0.03298891       0.02496391
Mg      -4.79847218      10.13979541       7.70659724      -0.01480717      -0.00155409      -0.02121399
Mg      -1.60539076       8.29204828       5.14020519      -0.02073421      -0.02066299      -0.03022025
Mg      -1.61723728      10.12770950       7.68931423      -0.00078172       0.00218555       0.03470801
Mg       1.56362107       8.27041203       5.13437397       0.04549786       0.01077995      -0.00991353
Mg       1.57206194      10.12321847       7.68682939      -0.01126595      -0.01815595       0.02438243
Mg       4.76216560       8.27283948       5.12664967       0.00075656       0.00926793       0.00993720
Mg       4.75863591      10.11082241       7.71216514      -0.01173447       0.01427667      -0.04557434
Mg       7.95458967       8.26634265       5.13250153       0.00463487      -0.00057123       0.01010871
Mg       7.94738151      10.10194787       7.70466304       0.00354334       0.02182419      -0.01070837
Mg       0.00578425       0.00431786      10.26677726      -0.00954842      -0.00232453       0.00137301
Mg      -0.00780031       1.83407739      12.83292924       0.00251688       0.02697577      -0.01045365
Mg      -3.21402713      11.05340284      10.27366219       0.01109761      -0.00362051      -0.02043660
Mg       3.17885733       1.84335662      12.83163993      -0.00391686      -0.02504961      -0.00215857
Mg       6.38884978      -0.01138796      10.26848325      -0.02163020      -0.03257414      -0.02114615
Mg       6.37306695       1.81877848      12.83156571      -0.01585995       0.02906521       0.01012590
Mg       3.16478791      11.02829907      10.26487479      -0.00215323       0.03766226      -0.00302299
Mg       9.56038969       1.81671498      12.83173217      -0.00634511       0.01186248      -0.00781252
Mg      12.75886533      -0.03014605      10.26684948       0.00051255       0.00064999       0.00948075
Mg      12.74707089       1.80859408      12.83106373       0.00183012      -0.00107615       0.00257523
Mg      14.33246267       2.73667812      10.26440729       0.03280156      -0.02384866       0.00555780
Mg      -1.60765106       4.60240470      12.83331328       0.00550093       0.01278828      -0.01113073
Mg       1.60017259       2.76206864      10.25804652      -0.03509025       0.00115088       0.01829365
Mg       1.58239726       4.60696216      12.83419576      -0.00704132      -0.00519005      -0.01262550
Mg       4.77581291       2.74353386      10.26847339       0.02556632       0.01376889      -0.00209730
Mg       4.76736956       4.59821492      12.82582042       0.00542925      -0.01561526       0.01536039
Mg       7.95800480       2.74301482      10.26314462       0.01525694       0.00183971       0.01801476
Mg       7.95556089       4.58999104      12.83414002       0.01336930      -0.02198917      -0.00915651
Mg      11.14369318       2.73179327      10.26232820       0.01822105      -0.00638523       0.01842089
Mg      11.15293329       4.57086389      12.83202089      -0.02340277       0.01919570      -0.00613475
Mg      12.73991748       5.49295817      10.26196110      -0.00565891      -0.01023597       0.01086181
Mg      -3.20491222       7.37237325      12.82820748      -0.01189608      -0.00624226       0.00215543
Mg      -0.01949029       5.52514940      10.25526049       0.02254375      -0.01235700       0.03724657
Mg      -0.01893911       7.37283149      12.82796141       0.00033437      -0.01015507       0.00538442
Mg       3.18758620       5.51177113      10.26790150      -0.03669668       0.02023390      -0.00813497
Mg       3.17200648       7.36504146      12.83465432      -0.02123680      -0.00189138      -0.01225142
Mg       6.36271428       5.51019310      10.25969861       0.00490390      -0.00516083       0.01157772
Mg       6.35418176       7.35440850      12.83361647       0.00748412      -0.00570316      -0.00896495
Mg       9.54916454       5.49340682      10.26034273       0.00757447       0.01583458       0.03461327
Mg       9.54157739       7.33994612      12.83189108       0.00485570      -0.00765370       0.00757535
Mg      11.13063373       8.25694360      10.26948276       0.01787537      -0.00923265      -0.01374104
Mg      -4.81009491      10.12232742      12.82942580      -0.01050323       0.04833917       0.01680357
Mg      -1.62502667       8.28181462      10.25899137       0.02526505       0.03389405       0.00680328
Mg      -1.61799542      10.13207144      12.83272090      -0.01235923      -0.00194015      -0.00710951
Mg       1.56940101       8.28668202      10.25962424       0.01579572      -0.02921703       0.00152266
Mg       1.56887910      10.13205675      12.83045503      -0.00282408      -0.02885918       0.01051922
Mg       4.76883241       8.27529378      10.26130205      -0.01740580      -0.01060213       0.01379595
Mg       4.75313915      10.11231089      12.83900838       0.01438613       0.01170710      -0.01593720
Mg       7.94655788       8.26578658      10.26665500       0.01385851      -0.00353997       0.00210785
Mg       7.94381328      10.10688360      12.83061656       0.00060861       0.00010616       0.00629631
120
Lattice="15.9435 -0.03985875 0.0 -6.40501495 11.06192432 0.0 0.0 0.0 15.3984" Properties=species:S:1:pos:R:3:forces:R:3 energy=-180.47322055 stress="-0.0011711168267223289 -4.732718541488781e-05 1.11430910726219e-06 -4.732718541488781e-05 0.0013568132138356568 -3.1874950200246988e-06 1.11430910726219e-06 -3.1874950200246988e-06 -0.0006695612556525454" free_energy=-180.47386166 pbc="T T T"
Mg      15.91718166      -0.02145453       0.01629089       0.06405561      -0.07507680      -0.03786038
Mg      -0.00059779       1.84916986       2.55669013      -0.00870193      -0.02708104       0.05808034
Mg       3.17119723      -0.00437088      15.38987283       0.02685820      -0.00383520       0.02581096
Mg       3.19041019       1.83160239       2.58620825      -0.00625631       0.00536188      -0.06205489
Mg      -0.03360923      11.03817961      15.39623868       0.00540929       0.00546262       0.00900960
Mg       6.37536043       1.83684209       2.55797913      -0.02410754      -0.01591395       0.02746576
Mg       3.16023672      11.03195439      15.39165119      -0.00613811       0.01490363       0.02844135
Mg       9.57789357       1.82288610       2.55385297      -0.04036503       0.00274198       0.03799492
Mg       6.34733487      11.02226734       0.00692158      -0.00429813       0.02407393      -0.00950930
Mg      12.75439968       1.80730979       2.56039006      -0.00882202       0.00051260       0.01507954
Mg      14.33970053       2.71974851       0.01582355       0.00057592       0.02046851      -0.05728572
Mg      -1.59766333       4.60181098       2.56361156      -0.03323493       0.02233797      -0.00953844
Mg       1.58512184       2.75013945      15.39712055       0.01092215       0.04111627       0.00316537
Mg       1.57387910       4.59002853       2.56727622       0.03348615       0.02165010      -0.00174956
Mg       4.75488216       2.74936242      15.39102478       0.04379483       0.00677183       0.01469109
Mg       4.75732670       4.59860277       2.57010799       0.04719575      -0.01945723      -0.00932387
Mg       7.95876815       2.72417178       0.00328232       0.01122872       0.04386174      -0.02061829
Mg       7.96488752       4.57104133       2.57809283      -0.01261141       0.02086338      -0.02918331
Mg      11.15877773       2.73213100      15.39084970      -0.00818068       0.01126831       0.01533528
Mg      11.15495753       4.58983051       2.56626008      -0.00689542      -0.04347305       0.01491229
Mg      -3.18754408       5.53277229      15.38749716      -0.02588208      -0.01584629       0.02156086
Mg      -3.21982864       7.35657137       2.56438240       0.04448371       0.05145195       0.00681113
Mg      -0.01030908       5.51292635      15.38478273       0.00723200       0.03204273       0.02541768
Mg      -0.00805758       7.35590691       2.56631767      -0.03491949      -0.00593526      -0.00638626
Mg       3.18800253       5.54314125       0.01784028      -0.03097506      -0.07998708      -0.05887833
Mg       3.18586325       7.35484558       2.55283421      -0.03200774       0.02035473       0.07009938
Mg       6.36092064       5.49453051      15.37448090       0.01859208       0.01044750       0.07262540
Mg       6.38770485       7.34098078       2.55433325      -0.07761918      -0.00274321       0.02897029
Mg       9.55586162       5.50162447       0.00538913      -0.00319720      -0.01222054      -0.00726426
Mg       9.53288834       7.34127280       2.57015033       0.04534424       0.00830187      -0.01455520
Mg      -4.78820171       8.30167622       0.00077038      -0.06678922      -0.01046755       0.01290958
Mg      -4.80973477      10.14985061       2.57901688      -0.00062843      -0.04181011      -0.04416062
Mg      -1.62571897       8.28793778       0.00099535       0.04654418      -0.00703989      -0.00077666
Mg      -1.60655468      10.11783139       2.56313636      -0.04853560       0.01071458      -0.01642320