120
Lattice="15.9435 -0.11957625 0.0 -6.46024486 11.09381132 0.0 0.0 0.0 15.3984" Properties=species:S:1:pos:R:3:forces:R:3 energy=-180.52381913 stress="-0.0009324008855241436 -0.0009185305670389671 2.4966036503533035e-10 -0.0009185305670389671 0.0009572125570239754 4.1069130048311835e-09 2.4966036503533035e-10 4.1069130048311835e-09 -0.00040546072859035445" free_energy=-180.5221185 pbc="T T T"
Mg       0.00000000       0.00000000       0.00000000       0.01333455      -0.00107035       0.00000778
Mg      -0.01380745       1.84099684       2.56640005      -0.01496809       0.00125661       0.00000911
Mg       3.18870000      -0.02391525       0.00000000       0.01398174      -0.00243796       0.00000613
Mg       3.17489255       1.81708159       2.56640005      -0.01297799       0.00542967       0.00000711
Mg       6.37740000      -0.04783050       0.00000000       0.01755725      -0.00362183       0.00000728
Mg       6.36359255       1.79316634       2.56640005      -0.01285961       0.00214218       0.00000779
Mg       9.56610000      -0.07174575       0.00000000       0.00882677       0.00154809       0.00000588
Mg       9.55229255       1.76925109       2.56640005      -0.00803711       0.00298866       0.00000842
Mg      12.75480000      -0.09566100       0.00000000       0.01258599       0.00021568       0.00000747
Mg      12.74099255       1.74533584       2.56640005      -0.01115980       0.00726453       0.00001021
Mg      -1.61506122       2.77345283       0.00000000       0.01333522      -0.00106942       0.00000737
Mg      -1.62886866       4.61444967       2.56640005      -0.01496877       0.00125746       0.00000844
Mg       1.57363879       2.74953758       0.00000000       0.01398145      -0.00243715       0.00000669
Mg       1.55983134       4.59053442       2.56640005      -0.01297876       0.00542904       0.00000904
Mg       4.76233879       2.72562233       0.00000000       0.01755867      -0.00362298       0.00000588
Mg       4.74853134       4.56661917       2.56640005      -0.01285916       0.00214199       0.00000749
Mg       7.95103879       2.70170708       0.00000000       0.00882684       0.00154822       0.00000615
Mg       7.93723134       4.54270392       2.56640005      -0.00803667       0.00298949       0.00000763
Mg      11.13973879       2.67779183       0.00000000       0.01258627       0.00021675       0.00000694
Mg      11.12593134       4.51878867       2.56640005      -0.01116011       0.00726400       0.00000969
Mg      -3.23012243       5.54690566       0.00000000       0.01333419      -0.00107036       0.00000697
Mg      -3.24392988       7.38790250       2.56640005      -0.01496839       0.00125722       0.00000849
Mg      -0.04142243       5.52299041       0.00000000       0.01398135      -0.00243794       0.00000629
Mg      -0.05522988       7.36398725       2.56640005      -0.01297933       0.00543007       0.00000787
Mg       3.14727757       5.49907516       0.00000000       0.01755763      -0.00362313       0.00000625
Mg       3.13347012       7.34007200       2.56640005      -0.01285839       0.00214177       0.00000760
Mg       6.33597757       5.47515991       0.00000000       0.00882731       0.00154817       0.00000716
Mg       6.32217012       7.31615675       2.56640005      -0.00803502       0.00298884       0.00000812
Mg       9.52467757       5.45124466       0.00000000       0.01258645       0.00021629       0.00000789
Mg       9.51087012       7.29224150       2.56640005      -0.01115803       0.00726462       0.00000932
Mg      -4.84518365       8.32035849       0.00000000       0.01333413      -0.00106898       0.00000636
Mg      -4.85899109      10.16135533       2.56640005      -0.01496783       0.00125661       0.00000884
Mg      -1.65648365       8.29644324       0.00000000       0.01398153      -0.00243704       0.00000598
Mg      -1.67029109      10.13744008       2.56640005      -0.01297822       0.00543068       0.00000840
Mg       1.53221636       8.27252799       0.00000000       0.01755744      -0.00362238       0.00000683
Mg       1.51840891      10.11352483       2.56640005      -0.01285983       0.00214141       0.00000763
Mg       4.72091635       8.24861274       0.00000000       0.00882715       0.00154827       0.00000667
Mg       4.70710891      10.08960958       2.56640005      -0.00803585       0.00298909       0.00000758
Mg       7.90961636       8.22469749       0.00000000       0.01258648       0.00021571       0.00000660
Mg       7.89580891      10.06569433       2.56640005      -0.01115880       0.00726360       0.00000927
Mg       0.00000000       0.00000000       5.13279995       0.01333357      -0.00107025       0.00000206
Mg      -0.01380745       1.84099684       7.69920000      -0.01496811       0.00125710      -0.00000708
Mg       3.18870000      -0.02391525       5.13279995       0.01397861      -0.00243682       0.00000154
Mg       3.17489255       1.81708159       7.69920000      -0.01297796       0.00542909      -0.00000575
Mg       6.37740000      -0.04783050       5.13279995       0.01755379      -0.00362271       0.00000244
Mg       6.36359255       1.79316634       7.69920000      -0.01285925       0.00214209      -0.00000607
Mg       9.56610000      -0.07174575       5.13279995       0.00882522       0.00154979       0.00000023
Mg       9.55229255       1.76925109       7.69920000      -0.00803569       0.00298965      -0.00000685
Mg      12.75480000      -0.09566100       5.13279995       0.01258603       0.00021678       0.00000141
Mg      12.74099255       1.74533584       7.69920000      -0.01115923       0.00726314      -0.00000613
Mg      -1.61506122       2.77345283       5.13279995       0.01333299      -0.00107015       0.00000165
Mg      -1.62886866       4.61444967       7.69920000      -0.01496843       0.00125772      -0.00000691
Mg       1.57363879       2.74953758       5.13279995       0.01397827      -0.00243777       0.00000186
Mg       1.55983134       4.59053442       7.69920000      -0.01297755       0.00542981      -0.00000565
Mg       4.76233879       2.72562233       5.13279995       0.01755376      -0.00362199       0.00000133
Mg       4.74853134       4.56661917       7.69920000      -0.01285864       0.00214130      -0.00000628
Mg       7.95103879       2.70170708       5.13279995       0.00882441       0.00155005       0.00000079
Mg       7.93723134       4.54270392       7.69920000      -0.00803619       0.00298972      -0.00000742
Mg      11.13973879       2.67779183       5.13279995       0.01258516       0.00021752       0.00000293
Mg      11.12593134       4.51878867       7.69920000      -0.01115913       0.00726394      -0.00000644
Mg      -3.23012243       5.54690566       5.13279995       0.01333303      -0.00106847       0.00000143
Mg      -3.24392988       7.38790250       7.69920000      -0.01496872       0.00125716      -0.00000729
Mg      -0.04142243       5.52299041       5.13279995       0.01397940      -0.00243709       0.00000101
Mg      -0.05522988       7.36398725       7.69920000      -0.01297851       0.00543060      -0.00000658
Mg       3.14727757       5.49907516       5.13279995       0.01755402      -0.00362291       0.00000167
Mg       3.13347012       7.34007200       7.69920000      -0.01285857       0.00214186      -0.00000636
Mg       6.33597757       5.47515991       5.13279995       0.00882499       0.00154945       0.00000106
Mg       6.32217012       7.31615675       7.69920000      -0.00803508       0.00298938      -0.00000646
Mg       9.52467757       5.45124466       5.13279995       0.01258551       0.00021731       0.00000205
Mg       9.51087012       7.29224150       7.69920000      -0.01115906       0.00726364      -0.00000646
Mg      -4.84518365       8.32035849       5.13279995       0.01333383      -0.00106967       0.00000202
Mg      -4.85899109      10.16135533       7.69920000      -0.01496920       0.00125744      -0.00000715
Mg      -1.65648365       8.29644324       5.13279995       0.01397775      -0.00243730       0.00000108
Mg      -1.67029109      10.13744008       7.69920000      -0.01297938       0.00543050      -0.00000582
Mg       1.53221636       8.27252799       5.13279995       0.01755382      -0.00362322       0.00000146
Mg       1.51840891      10.11352483       7.69920000      -0.01285932       0.00214198      -0.00000549
Mg       4.72091635       8.24861274       5.13279995       0.00882578       0.00154906       0.00000107
Mg       4.70710891      10.08960958       7.69920000      -0.00803518       0.00298975      -0.00000677
Mg       7.90961636       8.22469749       5.13279995       0.01258646       0.00021752       0.00000202
Mg       7.89580891      10.06569433       7.69920000      -0.01115840       0.00726322      -0.00000599
Mg       0.00000000       0.00000000      10.26560005       0.01333472      -0.00107008      -0.00000877
Mg      -0.01380745       1.84099684      12.83199995      -0.01496934       0.00125800      -0.00000161
Mg       3.18870000      -0.02391525      10.26560005       0.01397932      -0.00243692      -0.00000868
Mg       3.17489255       1.81708159      12.83199995      -0.01298127       0.00543142      -0.00000190
Mg       6.37740000      -0.04783050      10.26560005       0.01755492      -0.00362261      -0.00000735
Mg       6.36359255       1.79316634      12.83199995      -0.01286322       0.00214266      -0.00000301
Mg       9.56610000      -0.07174575      10.26560005       0.00882481       0.00154889      -0.00000898
Mg       9.55229255       1.76925109      12.83199995      -0.00803775       0.00299031      -0.00000194
Mg      12.75480000      -0.09566100      10.26560005       0.01258548       0.00021592      -0.00000886
Mg      12.74099255       1.74533584      12.83199995      -0.01116043       0.00726459      -0.00000054
Mg      -1.61506122       2.77345283      10.26560005       0.01333386      -0.00106978      -0.00000954
Mg      -1.62886866       4.61444967      12.83199995      -0.01496891       0.00125763      -0.00000288
Mg       1.57363879       2.74953758      10.26560005       0.01398048      -0.00243677      -0.00000955
Mg       1.55983134       4.59053442      12.83199995      -0.01298117       0.00542999      -0.00000151
Mg       4.76233879       2.72562233      10.26560005       0.01755598      -0.00362295      -0.00000868
Mg       4.74853134       4.56661917      12.83199995      -0.01286251       0.00214177      -0.00000102
Mg       7.95103879       2.70170708      10.26560005       0.00882583       0.00154949      -0.00000867
Mg       7.93723134       4.54270392      12.83199995      -0.00803882       0.00299043      -0.00000197
Mg      11.13973879       2.67779183      10.26560005       0.01258485       0.00021621      -0.00000702
Mg      11.12593134       4.51878867      12.83199995      -0.01116155       0.00726536      -0.00000152
Mg      -3.23012243       5.54690566      10.26560005       0.01333431      -0.00106924      -0.00000831
Mg      -3.24392988       7.38790250      12.83199995      -0.01496960       0.00125772      -0.00000152
Mg      -0.04142243       5.52299041      10.26560005       0.01398199      -0.00243689      -0.00000848
Mg      -0.05522988       7.36398725      12.83199995      -0.01298184       0.00543206      -0.00000267
Mg       3.14727757       5.49907516      10.26560005       0.01755777      -0.00362326      -0.00000789
Mg       3.13347012       7.34007200      12.83199995      -0.01286318       0.00214255      -0.00000150
Mg       6.33597757       5.47515991      10.26560005       0.00882596       0.00154850      -0.00000880
Mg       6.32217012       7.31615675      12.83199995      -0.00803888       0.00298875      -0.00000211
Mg       9.52467757       5.45124466      10.26560005       0.01258485       0.00021718      -0.00000953
Mg       9.51087012       7.29224150      12.83199995      -0.01115992       0.00726411      -0.00000200
Mg      -4.84518365       8.32035849      10.26560005       0.01333345      -0.00106968      -0.00000904
Mg      -4.85899109      10.16135533      12.83199995      -0.01496989       0.00125725      -0.00000162
Mg      -1.65648365       8.29644324      10.26560005       0.01397944      -0.00243690      -0.00000937
Mg      -1.67029109      10.13744008      12.83199995      -0.01298148       0.00543182      -0.00000177
Mg       1.53221636       8.27252799      10.26560005       0.01755583      -0.00362336      -0.00000896
Mg       1.51840891      10.11352483      12.83199995      -0.01286275       0.00214306      -0.00000150
Mg       4.72091635       8.24861274      10.26560005       0.00882592       0.00154878      -0.00000928
Mg       4.70710891      10.08960958      12.83199995      -0.00803673       0.00298945      -0.00000252
Mg       7.90961636       8.22469749      10.26560005       0.01258438       0.00021745      -0.00000837
Mg       7.89580891      10.06569433      12.83199995      -0.01115921       0.00726379      -0.00000147
120
Lattice="15.9435 -0.11957625 0.0 -6.46024486 11.09381132 0.0 0.0 0.0 15.3984" Properties=species:S:1:pos:R:3:forces:R:3 energy=-180.50571912 stress="-0.0009063701723939175 -0.0009323724679330934 -4.665740282908015e-06 -0.0009323724679330934 0.0009157344146411352 1.5810117106409847e-06 -4.665740282908015e-06 1.5810117106409847e-06 -0.0003938684048983971" free_energy=-180.50403478 pbc="T T T"
Mg      15.93675696      -0.11937811       0.00297867       0.04482975      -0.00923012      -0.00357049
Mg      -0.01639217       1.83899216       2.57108856       0.00230478      -0.00026424      -0.00045459
Mg       3.18911311      -0.01897953       0.00176450       0.01614788      -0.02046006      -0.02334856
Mg       3.17839622       1.80677761       2.56765887      -0.01217223       0.05639426      -0.00909082
Mg      -0.07860208      11.04010832      15.39664289      -0.00094146       0.02026808       0.01581087
Mg       6.36594364       1.79795388       2.57250644      -0.02085851      -0.00740761      -0.03142882
Mg       9.56077590      -0.07071671      15.39022807       0.02789874       0.01050244       0.03145773
Mg       9.55410569       1.77434663       2.56134768      -0.00896766      -0.03170802       0.02707807
Mg      12.75645547      -0.09175662      15.39594750      -0.01118190      -0.01265462       0.00519565
Mg      12.74730864       1.75145222       2.55766515      -0.02323194      -0.01657238       0.02302350
Mg      -1.60315734       2.76129208      15.39482480      -0.01429606       0.05412136       0.02429876
Mg      -1.61857855       4.62063256       2.57000913      -0.05685689      -0.01748252      -0.01379326
Mg       1.57978751       2.75053967       0.00088387       0.00893022      -0.01480734      -0.00038671
Mg       1.55666276       4.59174854       2.56074653       0.01453420      -0.01118484       0.02334064
Mg       4.76149804       2.73613145      15.39108314       0.02773535      -0.03163089       0.02606907
Mg       4.75028836       4.58228300       2.56933545      -0.02883247      -0.05291900      -0.01048243
Mg       7.95293073       2.71194387       0.00958766       0.00365579      -0.03390712      -0.02430413
Mg       7.93609449       4.54584822       2.57244223      -0.00757247       0.00514759       0.01029389
Mg      11.14328223       2.68582527       0.00134828       0.00822370      -0.02029223      -0.02015386
Mg      11.11718532       4.51174867       2.57092025       0.01182504       0.03262963      -0.00165144
Mg      12.70194543       5.43155749       0.00168751       0.04607593      -0.02933752       0.00883206
Mg      -3.24214983       7.38683211       2.56449435      -0.02329747       0.00709922       0.00379762
Mg      -0.04138750       5.51496989       0.00154846       0.01235659       0.01902263      -0.01250209
Mg      -0.05797782       7.35960562       2.56304782      -0.00731494       0.01586609       0.00144210
Mg       3.15122193       5.49755677      15.39659361       0.01315248      -0.00032649      -0.00456694
Mg       3.13375626       7.33840223       2.56032169      -0.02605269       0.00799113       0.01037588
Mg       6.35000906       5.47306894       0.00342784      -0.03187596       0.01512360      -0.00612798
Mg       6.30942364       7.31477404       2.56340907       0.02770355       0.00527188       0.00740768
Mg       9.51874102       5.45623673       0.00457102       0.03206562      -0.01541416      -0.01449400
Mg       9.51213605       7.29005861       2.56915267      -0.01348637       0.01559405      -0.00425380
Mg      11.09424620       8.19788011       0.00252549       0.01634328       0.02836622      -0.00540616
Mg      -4.84913156      10.16910768       2.56811913      -0.04755036      -0.02770553      -0.01431075
Mg      -1.65839437       8.28901178      15.39399806       0.01913483       0.01996578       0.01463308
Mg      -1.67111710      10.13979463       2.56937856       0.00515396      -0.01320737      -0.01414377
Mg       1.53653504       8.27412722       0.00124080      -0.00487502      -0.01730975      -0.01257010
Mg       1.51432224      10.10724228       2.56860202       0.00772953       0.02560236      -0.01074966
Mg       4.71482644       8.25029202      15.39761792       0.02250752       0.00252930       0.00754674
Mg       4.71579779      10.08752996       2.57059565      -0.04389957       0.01951966      -0.00931711
Mg       7.90621332       8.23198799       0.00147979       0.01627396      -0.01881761      -0.00703115
Mg       7.89528795      10.05551486       2.56307785      -0.00250307       0.03376932       0.01136700
Mg       9.48236332      10.96311168       5.13535670       0.02321326       0.03730084      -0.01340351
Mg      -0.01931758       1.83878447       7.71183593       0.00556569       0.01109296      -0.03713206
Mg      -3.27393222      11.06907817       5.12405119       0.01518074      -0.00647203       0.03869924
Mg       3.17510064       1.81648248       7.69846365      -0.03205801      -0.00539864      -0.00278348
Mg       6.37799136      -0.03927500       5.13208007       0.01155448      -0.03754698       0.00623301
Mg       6.35783360       1.78653482       7.70534720       0.00758044       0.02622812      -0.01176276
Mg       3.10088853      11.02050743       5.13908866       0.02974560       0.01852909      -0.02487033
Mg       9.56121542       1.77284140       7.70587274      -0.03450131      -0.00749539      -0.01854533
Mg       6.29611735      10.99351723       5.13688976       0.00968682       0.02021716      -0.03206867
Mg      12.74547437       1.74519166       7.70040539      -0.01482384       0.01560360      -0.00352050
Mg      14.32873535       2.65231674       5.12867780       0.01733864       0.00504854       0.01699646
Mg      -1.62393519       4.62202579       7.69608552      -0.03230634      -0.02551903       0.00400995
Mg       1.57465818       2.74635484       5.13833290       0.00973530       0.00848666      -0.00924288
Mg       1.55498211       4.59884155       7.70216388      -0.00266850      -0.02395064      -0.02309438
Mg       4.76445655       2.71661608       5.12984885       0.00438278       0.02643219       0.00594463
Mg       4.74169927       4.56374869       7.69673010       0.00589722       0.00249255       0.00131956
Mg       7.94691271       2.70217045       5.13548620       0.04190454       0.01175218       0.01090698
Mg       7.93722004       4.54427819       7.70372728      -0.01649689      -0.00761987      -0.00616045
Mg      11.15154823       2.68746437       5.13630678      -0.01834423      -0.03047582      -0.00916241
Mg      11.12718671       4.51273291       7.70294104      -0.00407664       0.01946983      -0.00801158
Mg      12.70354315       5.44239713       5.13193410       0.03651589      -0.03908831      -0.00145929
Mg      -3.23580494       7.38276567       7.69854326      -0.03227671       0.01124293       0.01519510
Mg      -0.04222485       5.51874341       5.13466408       0.02061315       0.01672001      -0.00305600
Mg      -0.05484144       7.36761682       7.70368694      -0.00579566       0.01106077      -0.02187257
Mg       3.15028767       5.50324076       5.13693627      -0.00604001      -0.03247728      -0.02163758
Mg       3.13183792       7.33488166       7.69176026      -0.00794465       0.03080518       0.01686486
Mg       6.33298105       5.47102933       5.13418365       0.02284150       0.01122206       0.00471631
Mg       6.32805498       7.31327992       7.69631650      -0.01443433       0.00707283       0.00438296
Mg       9.52332164       5.46573485       5.14110831       0.00621834      -0.04365800      -0.01033880
Mg       9.52522638       7.29397178       7.70151654      -0.04763118      -0.00466257      -0.01178527
Mg      11.09697754       8.20263454       5.13172067       0.02639982       0.00392504      -0.00304052
Mg      -4.86816327      10.15024843       7.69915226       0.02200730       0.04126043       0.00351403
Mg      -1.65541211       8.29378564       5.13702558       0.01596754       0.01206361      -0.01888611
Mg      -1.67449672      10.13684148       7.69307390      -0.01418735       0.00172848       0.01291768
Mg       1.52579245       8.27207670       5.12088898       0.02371478      -0.00122001       0.03597742
Mg       1.52238878      10.12530225       7.70121242      -0.01546690      -0.02777627      -0.01151857
Mg       4.71594680       8.23686031       5.13420336       0.01727458       0.03383275      -0.00699549
Mg       4.71895995      10.08978280       7.68842897      -0.04451082      -0.01067890       0.03270364
Mg       7.91184075       8.23006487       5.12857263      -0.00575289      -0.02853575       0.01123050
Mg       7.90306252      10.07217215       7.69248060      -0.03174466      -0.02682790       0.02459137
Mg       9.48068502      10.97123134      10.26831464       0.01756007       0.01388033       0.00200732
Mg      -0.02248997       1.84564291      12.84295483       0.03648274      -0.01130233      -0.03473416
Mg       3.18388141      -0.01765229      10.26960518       0.01638614      -0.01983218      -0.02775930
Mg       3.18087565       1.81510488      12.82563564      -0.03635704       0.01161629       0.01007940
Mg      -0.09161357      11.04219584      10.25851925       0.03419081       0.01060280       0.01797347
Mg       6.36398330       1.78705356      12.83503728      -0.01167816       0.01417511      -0.00698488
Mg       9.57158622      -0.07026893      10.27388593      -0.00393509      -0.01648750      -0.02932173
Mg       9.55007931       1.76402103      12.83100090       0.01298817       0.02800176       0.01832759
Mg      12.74946989      -0.09342686      10.26074278       0.02724816      -0.01835343       0.01333103
Mg      12.75788953       1.75088168      12.83509580      -0.08342907      -0.01227115      -0.01133303
Mg      14.32776817       2.64695208      10.26802792       0.01680721       0.02252112      -0.00739774
Mg      -1.62273091       4.61848711      12.82690416      -0.02969467      -0.00396968       0.01340360
Mg       1.56972523       2.76176885      10.26117101       0.01455140      -0.04463762       0.02084873
Mg       1.55532968       4.59102535      12.82685427       0.01011064      -0.00716029       0.01586432
Mg       4.76038001       2.72759934      10.25953616       0.02324307      -0.01062423       0.01649882
Mg       4.74828805       4.56712963      12.82748021      -0.01877947       0.00394702       0.00656960
Mg       7.95374874       2.69925788      10.27056249      -0.00083468       0.00501425      -0.00883916
Mg       7.92694635       4.54276416      12.83522638       0.02671465      -0.00564833      -0.00856591
Mg      11.13776082       2.67241752      10.26767067       0.02170078       0.01506001       0.00652160
Mg      11.13512889       4.52294586      12.82471189      -0.05677582      -0.01980605       0.01541533
Mg      12.70801304       5.41775643      10.26409393       0.03375999       0.02120365      -0.00190247
Mg      -3.24435452       7.38073062      12.84086835      -0.01648087       0.02529299      -0.02964813
Mg      -0.03491873       5.52184903      10.26045498      -0.01671569       0.00532605       0.00958721
Mg      -0.05352483       7.35637095      12.82996736      -0.00645154       0.02370461       0.00576923
Mg       3.14400519       5.49193347      10.26069258       0.03319284       0.03080983       0.01121842
Mg       3.12743595       7.33600253      12.83204537      -0.01009735       0.00687616      -0.01615719
Mg       6.33293428       5.47379168      10.27094237       0.00858696       0.01135105      -0.01435648
Mg       6.31496443       7.32297497      12.84359479       0.01147778      -0.01511296      -0.02779590
Mg       9.51925481       5.45849442      10.25461961       0.02491236      -0.03345433       0.03747196
Mg       9.50819857       7.28412829      12.83242618      -0.01481579       0.02769180       0.00088459
Mg      11.09675295       8.20019696      10.26836945       0.03396718      -0.00531946       0.00355440
Mg      -4.85968222      10.16212320      12.82388407      -0.01636331      -0.00397796       0.03453494
Mg      -1.65360707       8.29330721      10.26974114      -0.00999180      -0.00064528      -0.00549145
Mg      -1.66618625      10.13417411      12.83099582      -0.02813345      -0.00209725       0.00457647
Mg       1.52818461       8.27544736      10.25617839       0.03797415      -0.00796606       0.02429814
Mg       1.51582898      10.11860097      12.82897493      -0.01161390      -0.02620635      -0.00571226
Mg       4.72401469       8.24645532      10.26459007       0.00023755      -0.00017456      -0.00809894
Mg       4.70553860      10.07853016      12.83380911      -0.00683777       0.04216058      -0.00627226
Mg       7.91338241       8.21900552      10.26102873      -0.00446979       0.02297024       0.01670830
Mg       7.89175656      10.07689556      12.82998568      -0.00369752      -0.03534665      -0.00541731
120
Lattice="15.9435 -0.11957625 0.0 -6.46024486 11.09381132 0.0 0.0 0.0 15.3984" Properties=species:S:1:pos:R:3:forces:R:3 energy=-180.45334792 stress="-0.0009122309557046309 -0.0009595746249451202 -2.244596477886641e-06 -0.0009595746249451202 0.0008605178431024576 -4.7122145598593427e-07 -2.244596477886641e-06 -4.7122145598593427e-07 -0.00042751860257328255" free_energy=-180.45170192 pbc="T T T"
Mg      15.93003168      -0.11918375       0.00595579       0.07750994      -0.01878533      -0.00758004
Mg      -0.01897606       1.83698715       2.57577706       0.01798091      -0.00102430      -0.00276321
Mg       3.18953243      -0.01405202       0.00351977       0.01888268      -0.03472122      -0.04346036
Mg       3.18189503       1.79649586       2.56891430      -0.00648799       0.10659369      -0.02016284
Mg      -0.07435989      11.03424367      15.39489209      -0.02173089       0.04097895       0.02974922
Mg       6.36828639       1.80273828       2.57860051      -0.02399487      -0.01060427      -0.05982157
Mg       9.55546287      -0.06968377      15.38206876       0.04975515       0.01425397       0.06572763
Mg       9.55591516       1.77942939       2.55630609      -0.00698993      -0.06245936       0.05351300
Mg      12.75810616      -0.08785740      15.39349715      -0.03212161      -0.02204168       0.00941051
Mg      12.75361528       1.75756194       2.54893934      -0.04117282      -0.03592764       0.04824669
Mg      -1.59125923       2.74915269      15.39125930      -0.04299640       0.10354361       0.04497434
Mg      -1.60831112       4.62680833       2.57361297      -0.09924228      -0.03839442      -0.02988667
Mg       1.58593984       2.75153555       0.00176758       0.00616017      -0.02517762      -0.00238978
Mg       1.55349976       4.59295798       2.55510240       0.03616971      -0.02490084       0.04981748
Mg       4.76066807       2.74662778      15.38377660       0.03927584      -0.05234828       0.05369262
Mg       4.75203393       4.59792560       2.57226684      -0.04430071      -0.10590791      -0.01644540
Mg       7.95482399       2.72216695       0.01916577       0.00217572      -0.05903081      -0.04659748
Mg       7.93495446       4.54899443       2.57848872      -0.01038251       0.00447698       0.01734066
Mg      11.14682871       2.69385052       0.00268856       0.00556690      -0.03458803      -0.04151296
Mg      11.10844370       4.50472157       2.57543999       0.03364447       0.06351309      -0.00501190
Mg      12.69053140       5.43577384       0.00337856       0.08004780      -0.06058843       0.01596092
Mg      -3.24037908       7.38576433       2.56259033      -0.03066209       0.01475676       0.00795149
Mg      -0.04134781       5.50695674       0.00309215       0.00913478       0.03570455      -0.02693378
Mg      -0.06072868       7.35523009       2.55969620      -0.00567913       0.02561024      -0.00147566
Mg       3.15517143       5.49603802      15.39478538       0.00705456       0.01186559      -0.01021934
Mg       3.13403194       7.33673540       2.55424763      -0.04079098       0.01649248       0.02454194
Mg       6.36402763       5.47098381       0.00685337      -0.07334184       0.03304737      -0.01020765
Mg       6.29668795       7.31339323       2.56042116       0.06414960       0.01363514       0.01750872
Mg       9.51281685       5.46122253       0.00913618       0.04622672      -0.02220733      -0.02633700
Mg       9.51339641       7.28788173       2.57190359      -0.01681639       0.02484339      -0.00983569
Mg      11.09018249       8.19498898       0.00504898       0.01734385       0.05304297      -0.01206196
Mg      -4.83929105      10.17684880       2.56983251      -0.08183561      -0.06158681      -0.02979957
Mg      -1.66029749       8.28158800      15.38960212       0.02453220       0.03536292       0.02913730
Mg      -1.67194139      10.14214375       2.57235153       0.02133099      -0.03069831      -0.02794752