120
Lattice="16.102935 0.0 0.0 -6.441174 11.15644063 0.0 0.0 0.0 15.3984" Properties=species:S:1:pos:R:3:forces:R:3 energy=-180.56219319 stress="0.003893862161641649 0.0008037505062063631 3.60135076563464e-09 0.0008037505062063631 0.006932968685096419 -5.124278992350155e-09 3.60135076563464e-09 -5.124278992350155e-09 0.002191262276843729" free_energy=-180.56051463 pbc="T T T"
Mg       0.00000000       0.00000000       0.00000000       0.00059284      -0.00079367       0.00000328
Mg       0.00000003       1.85940681       2.56640005       0.00011478       0.00498866       0.00001037
Mg       3.22058700       0.00000000       0.00000000       0.00093697      -0.00353117       0.00000183
Mg       3.22058703       1.85940681       2.56640005       0.00018846       0.00358799       0.00001147
Mg       6.44117400       0.00000000       0.00000000       0.00068981      -0.00092190       0.00000504
Mg       6.44117403       1.85940681       2.56640005      -0.00229443       0.00050793       0.00001099
Mg       9.66176100       0.00000000       0.00000000       0.00030397      -0.00077070       0.00000337
Mg       9.66176103       1.85940681       2.56640005      -0.00124191       0.00217320       0.00001207
Mg      12.88234800       0.00000000       0.00000000       0.00032739       0.00175117       0.00000213
Mg      12.88234803       1.85940681       2.56640005      -0.00481292       0.00376032       0.00001192
Mg      -1.61029350       2.78911016       0.00000000       0.00059508      -0.00079430       0.00000091
Mg      -1.61029347       4.64851697       2.56640005       0.00011630       0.00498760       0.00001176
Mg       1.61029350       2.78911016       0.00000000       0.00093695      -0.00352889       0.00000281
Mg       1.61029353       4.64851697       2.56640005       0.00018867       0.00358908       0.00001257
Mg       4.83088050       2.78911016       0.00000000       0.00068880      -0.00092142       0.00000331
Mg       4.83088053       4.64851697       2.56640005      -0.00229604       0.00051119       0.00001084
Mg       8.05146750       2.78911016       0.00000000       0.00030381      -0.00077156       0.00000285
Mg       8.05146753       4.64851697       2.56640005      -0.00124344       0.00217372       0.00001198
Mg      11.27205450       2.78911016       0.00000000       0.00033149       0.00174928       0.00000421
Mg      11.27205453       4.64851697       2.56640005      -0.00480943       0.00376068       0.00001294
Mg      -3.22058700       5.57822032       0.00000000       0.00059735      -0.00079495       0.00000207
Mg      -3.22058697       7.43762712       2.56640005       0.00011734       0.00498806       0.00000989
Mg       0.00000000       5.57822032       0.00000000       0.00093701      -0.00353023       0.00000334
Mg       0.00000003       7.43762712       2.56640005       0.00019091       0.00358670       0.00001159
Mg       3.22058700       5.57822032       0.00000000       0.00068627      -0.00091972       0.00000353
Mg       3.22058703       7.43762712       2.56640005      -0.00229619       0.00050916       0.00001129
Mg       6.44117400       5.57822032       0.00000000       0.00030257      -0.00076880       0.00000313
Mg       6.44117403       7.43762712       2.56640005      -0.00124727       0.00217700       0.00001175
Mg       9.66176100       5.57822032       0.00000000       0.00032981       0.00174953       0.00000293
Mg       9.66176103       7.43762712       2.56640005      -0.00481284       0.00376219       0.00001154
Mg      -4.83088050       8.36733047       0.00000000       0.00059464      -0.00079428       0.00000380
Mg      -4.83088047      10.22673728       2.56640005       0.00011653       0.00498964       0.00001137
Mg      -1.61029350       8.36733047       0.00000000       0.00094039      -0.00353233       0.00000261
Mg      -1.61029347      10.22673728       2.56640005       0.00019155       0.00358661       0.00001184
Mg       1.61029350       8.36733047       0.00000000       0.00069019      -0.00092084       0.00000323
Mg       1.61029353      10.22673728       2.56640005      -0.00229381       0.00050658       0.00001137
Mg       4.83088050       8.36733047       0.00000000       0.00030303      -0.00076698       0.00000355
Mg       4.83088053      10.22673728       2.56640005      -0.00124517       0.00217445       0.00001317
Mg       8.05146750       8.36733047       0.00000000       0.00032792       0.00175244       0.00000371
Mg       8.05146753      10.22673728       2.56640005      -0.00481355       0.00376195       0.00001083
Mg       0.00000000       0.00000000       5.13279995       0.00059234      -0.00079262       0.00000751
Mg       0.00000003       1.85940681       7.69920000       0.00011409       0.00498909      -0.00000321
Mg       3.22058700       0.00000000       5.13279995       0.00093664      -0.00353094       0.00000861
Mg       3.22058703       1.85940681       7.69920000       0.00018978       0.00358979      -0.00000195
Mg       6.44117400       0.00000000       5.13279995       0.00069043      -0.00092100       0.00000858
Mg       6.44117403       1.85940681       7.69920000      -0.00229471       0.00050966      -0.00000258
Mg       9.66176100       0.00000000       5.13279995       0.00030522      -0.00076996       0.00000722
Mg       9.66176103       1.85940681       7.69920000      -0.00124311       0.00217258      -0.00000356
Mg      12.88234800       0.00000000       5.13279995       0.00032851       0.00175231       0.00000782
Mg      12.88234803       1.85940681       7.69920000      -0.00481178       0.00376168      -0.00000249
Mg      -1.61029350       2.78911016       5.13279995       0.00059372      -0.00079259       0.00000828
Mg      -1.61029347       4.64851697       7.69920000       0.00011738       0.00498774      -0.00000166
Mg       1.61029350       2.78911016       5.13279995       0.00093463      -0.00352712       0.00000922
Mg       1.61029353       4.64851697       7.69920000       0.00018960       0.00358979      -0.00000410
Mg       4.83088050       2.78911016       5.13279995       0.00068605      -0.00092083       0.00000976
Mg       4.83088053       4.64851697       7.69920000      -0.00229518       0.00051070      -0.00000347
Mg       8.05146750       2.78911016       5.13279995       0.00030591      -0.00077009       0.00000915
Mg       8.05146753       4.64851697       7.69920000      -0.00124247       0.00217623      -0.00000562
Mg      11.27205450       2.78911016       5.13279995       0.00033066       0.00175058       0.00000985
Mg      11.27205453       4.64851697       7.69920000      -0.00480800       0.00375966      -0.00000204
Mg      -3.22058700       5.57822032       5.13279995       0.00059434      -0.00079517       0.00000857
Mg      -3.22058697       7.43762712       7.69920000       0.00011884       0.00498630      -0.00000468
Mg       0.00000000       5.57822032       5.13279995       0.00093777      -0.00352988       0.00000988
Mg       0.00000003       7.43762712       7.69920000       0.00019216       0.00358797      -0.00000255
Mg       3.22058700       5.57822032       5.13279995       0.00068507      -0.00091915       0.00000867
Mg       3.22058703       7.43762712       7.69920000      -0.00229594       0.00050963      -0.00000261
Mg       6.44117400       5.57822032       5.13279995       0.00030170      -0.00076726       0.00000724
Mg       6.44117403       7.43762712       7.69920000      -0.00124565       0.00217680      -0.00000418
Mg       9.66176100       5.57822032       5.13279995       0.00033135       0.00175098       0.00000793
Mg       9.66176103       7.43762712       7.69920000      -0.00481142       0.00376070      -0.00000254
Mg      -4.83088050       8.36733047       5.13279995       0.00059301      -0.00079542       0.00000757
Mg      -4.83088047      10.22673728       7.69920000       0.00011629       0.00498995      -0.00000553
Mg      -1.61029350       8.36733047       5.13279995       0.00093890      -0.00353109       0.00000883
Mg      -1.61029347      10.22673728       7.69920000       0.00019383       0.00358756      -0.00000337
Mg       1.61029350       8.36733047       5.13279995       0.00068897      -0.00092115       0.00000915
Mg       1.61029353      10.22673728       7.69920000      -0.00229434       0.00050772      -0.00000200
Mg       4.83088050       8.36733047       5.13279995       0.00030293      -0.00076661       0.00000681
Mg       4.83088053      10.22673728       7.69920000      -0.00124524       0.00217542      -0.00000434
Mg       8.05146750       8.36733047       5.13279995       0.00032728       0.00175104       0.00001001
Mg       8.05146753      10.22673728       7.69920000      -0.00481494       0.00376324      -0.00000258
Mg       0.00000000       0.00000000      10.26560005       0.00059336      -0.00079285      -0.00001128
Mg       0.00000003       1.85940681      12.83199995       0.00011466       0.00499067      -0.00000999
Mg       3.22058700       0.00000000      10.26560005       0.00093816      -0.00353022      -0.00001253
Mg       3.22058703       1.85940681      12.83199995       0.00018811       0.00358957      -0.00000774
Mg       6.44117400       0.00000000      10.26560005       0.00068916      -0.00092276      -0.00001290
Mg       6.44117403       1.85940681      12.83199995      -0.00229415       0.00050866      -0.00000894
Mg       9.66176100       0.00000000      10.26560005       0.00030526      -0.00076920      -0.00001194
Mg       9.66176103       1.85940681      12.83199995      -0.00124262       0.00217345      -0.00000911
Mg      12.88234800       0.00000000      10.26560005       0.00033002       0.00175043      -0.00001131
Mg      12.88234803       1.85940681      12.83199995      -0.00481232       0.00376231      -0.00000942
Mg      -1.61029350       2.78911016      10.26560005       0.00059399      -0.00079312      -0.00001313
Mg      -1.61029347       4.64851697      12.83199995       0.00011802       0.00498771      -0.00000846
Mg       1.61029350       2.78911016      10.26560005       0.00093404      -0.00352836      -0.00001353
Mg       1.61029353       4.64851697      12.83199995       0.00018803       0.00358985      -0.00000873
Mg       4.83088050       2.78911016      10.26560005       0.00068539      -0.00092051      -0.00000975
Mg       4.83088053       4.64851697      12.83199995      -0.00229685       0.00051128      -0.00000801
Mg       8.05146750       2.78911016      10.26560005       0.00030614      -0.00077085      -0.00001233
Mg       8.05146753       4.64851697      12.83199995      -0.00124536       0.00217515      -0.00000928
Mg      11.27205450       2.78911016      10.26560005       0.00033099       0.00174910      -0.00001217
Mg      11.27205453       4.64851697      12.83199995      -0.00480840       0.00376055      -0.00000828
Mg      -3.22058700       5.57822032      10.26560005       0.00059602      -0.00079744      -0.00001035
Mg      -3.22058697       7.43762712      12.83199995       0.00011970       0.00498765      -0.00000803
Mg       0.00000000       5.57822032      10.26560005       0.00093699      -0.00353027      -0.00001196
Mg       0.00000003       7.43762712      12.83199995       0.00019229       0.00358798      -0.00000841
Mg       3.22058700       5.57822032      10.26560005       0.00068454      -0.00092123      -0.00001166
Mg       3.22058703       7.43762712      12.83199995      -0.00229643       0.00050910      -0.00000815
Mg       6.44117400       5.57822032      10.26560005       0.00030159      -0.00076911      -0.00001249
Mg       6.44117403       7.43762712      12.83199995      -0.00124793       0.00217721      -0.00000853
Mg       9.66176100       5.57822032      10.26560005       0.00033152       0.00174963      -0.00001074
Mg       9.66176103       7.43762712      12.83199995      -0.00481130       0.00376150      -0.00000746
Mg      -4.83088050       8.36733047      10.26560005       0.00059601      -0.00079454      -0.00001212
Mg      -4.83088047      10.22673728      12.83199995       0.00011632       0.00498813      -0.00000843
Mg      -1.61029350       8.36733047      10.26560005       0.00093958      -0.00353140      -0.00001169
Mg      -1.61029347      10.22673728      12.83199995       0.00019388       0.00358810      -0.00000668
Mg       1.61029350       8.36733047      10.26560005       0.00068900      -0.00092166      -0.00001081
Mg       1.61029353      10.22673728      12.83199995      -0.00229411       0.00050706      -0.00000943
Mg       4.83088050       8.36733047      10.26560005       0.00030227      -0.00076624      -0.00001151
Mg       4.83088053      10.22673728      12.83199995      -0.00124551       0.00217424      -0.00000858
Mg       8.05146750       8.36733047      10.26560005       0.00032770       0.00175044      -0.00001308
Mg       8.05146753      10.22673728      12.83199995      -0.00481400       0.00376026      -0.00000799
120
Lattice="16.102935 0.0 0.0 -6.441174 11.15644063 0.0 0.0 0.0 15.3984" Properties=species:S:1:pos:R:3:forces:R:3 energy=-180.54650336 stress="0.00391262923738701 0.000824684159565537 -1.1535869241913732e-06 0.000824684159565537 0.006960344955247022 1.0030105165294396e-06 -1.1535869241913732e-06 1.0030105165294396e-06 0.002236650518724134" free_energy=-180.54480931 pbc="T T T"
Mg       9.66079009      11.15113028      15.39627687      -0.00601651       0.01030298      -0.00274492
Mg       0.00047114       1.84645150       2.57183907      -0.01237925       0.04197790      -0.02205521
Mg       3.21893001       0.00376641       0.00650844       0.00472891      -0.00012710      -0.00581549
Mg       3.21434602       1.86183891       2.57109117       0.01217293       0.01941798      -0.01654453
Mg       6.44228855       0.01080044      15.39752645      -0.00324663      -0.03029490       0.00402172
Mg       6.43484245       1.85713491       2.57050603       0.00598592       0.01461626      -0.01316609
Mg       9.66050858       0.00045730       0.00202766       0.00031948      -0.00547319      -0.00190874
Mg       9.65771788       1.86168585       2.56358661       0.01482531      -0.00722190       0.00507996
Mg       6.43223033      11.15367539       0.00377553       0.02822933      -0.00236799      -0.01912085
Mg      12.87827911       1.86388645       2.55765915       0.01047411      -0.00719467       0.02210296
Mg      -1.60598654       2.78623113      15.38521450      -0.00046655      -0.00171673       0.04208446
Mg      -1.62022022       4.65428418       2.56525456       0.02077179      -0.02390918       0.00534582
Mg       1.61063839       2.78559008      15.39163610      -0.00096571       0.01129858       0.03273759
Mg       1.60028984       4.65849372       2.56714210       0.02369791      -0.02650440      -0.00582756
Mg       4.84027192       2.79359248      15.39328219      -0.03950297       0.00777095       0.02653733
Mg       4.83554191       4.65383513       2.58092521      -0.02002518      -0.00956315      -0.04949110
Mg       8.04600738       2.78308501      15.39686262       0.02327437       0.01745894       0.01691705
Mg       8.05840249       4.65103040       2.57067649      -0.01862273      -0.01232029      -0.01260964
Mg      11.27590623       2.78522649      15.39579844      -0.01752982       0.01990425       0.00229572
Mg      11.27122794       4.64904389       2.57316287      -0.00003405       0.00113249      -0.02237396
Mg      -3.21394538       5.56892008       0.00510565      -0.03148454       0.02979132      -0.01104265
Mg      -3.21742310       7.44374398       2.56750827      -0.01552063      -0.00364290      -0.01500810
Mg      -0.00093014       5.57419485       0.00119430      -0.00605114      -0.00127509      -0.01229268
Mg       0.00083243       7.43959200       2.55612162      -0.00330419       0.00547228       0.02668915
Mg       3.21187344       5.58793802      15.39060117       0.02416194      -0.03445487       0.02095275
Mg       3.22393912       7.43752125       2.56347605      -0.00867636       0.00487183       0.01333635
Mg       6.43877560       5.57404479       0.00032537       0.00221955       0.01185303       0.00894425
Mg       6.44456995       7.43505980       2.56797361       0.00154452       0.00661998      -0.00917543
Mg       9.65488595       5.57611242       0.00730177       0.02965864      -0.00370917      -0.02641820
Mg       9.66411393       7.43175393       2.56688156      -0.00676140       0.02102167      -0.00095165
Mg      11.26444931       8.37227657      15.39710807       0.02869945      -0.02748671      -0.00092272
Mg      -4.83340087      10.22688310       2.56502636       0.00572209      -0.00195961       0.01197036
Mg      -1.61016522       8.37343260       0.00945554      -0.01111096      -0.01038904      -0.02785836
Mg      -1.60695665      10.23655696       2.57286784      -0.00880082      -0.01757918      -0.01914338
Mg       1.60612645       8.35983491      15.39267534       0.00933611       0.02587040       0.01924426
Mg       1.60750154      10.22992256       2.56822830       0.00721678      -0.00814764      -0.02733434
Mg       4.82493997       8.36799093       0.00086092       0.02030418      -0.00631992      -0.01318781
Mg       4.84426664      10.22540900       2.56482587      -0.03725962       0.00931649       0.00834644
Mg       8.06012196       8.36551041      15.39138433      -0.02975245       0.00008661       0.01289082
Mg       8.05219938      10.22924893       2.57112089      -0.00583513      -0.00812595      -0.01712669
Mg       9.65593067      11.15321073       5.13433994       0.02238707      -0.00533325       0.01400818
Mg      -0.00104940       1.86459009       7.69966303      -0.00605050      -0.01454324       0.01123362
Mg      -3.20858113      11.15514593       5.13127289      -0.04147006      -0.00051376       0.00924320
Mg       3.21984417       1.85621027       7.69722654       0.00268946       0.01322870       0.00601278
Mg      -0.00264777      11.15146508       5.13162536       0.00958800       0.00682205       0.01563991
Mg       6.44149880       1.85909699       7.70137364       0.00589639       0.01172101      -0.01088973
Mg       3.21231006      11.14694070       5.12317733       0.02870649       0.02537913       0.01363154
Mg       9.67408190       1.85682487       7.69300907      -0.03726930       0.02496851      -0.00001621
Mg       6.43880822      11.14558698       5.14180262      -0.00373493       0.03293260      -0.02157810
Mg      12.87736234       1.84803404       7.70756533       0.01961175       0.02575337      -0.01666227
Mg      14.48866449       2.78040713       5.13316612       0.00351488       0.01464082      -0.00277711
Mg      -1.61742140       4.65291394       7.69640658       0.00956501      -0.00688358       0.00532482
Mg       1.60864543       2.78852601       5.13349796      -0.00266510      -0.00930033      -0.00458959
Mg       1.60238419       4.64678002       7.69109382       0.01508239       0.01083945       0.02800568
Mg       4.83048327       2.79074647       5.12699383       0.00390072      -0.01391651       0.02808906
Mg       4.83185518       4.64829283       7.69835494      -0.00412338       0.00705377       0.00385900
Mg       8.04610410       2.78371992       5.12660841       0.02560194       0.00321866       0.02612480
Mg       8.04923129       4.66611101       7.69336801       0.01608576      -0.05271052       0.01732779
Mg      11.28252360       2.79005299       5.13327176      -0.02350431      -0.01799862      -0.00434941
Mg      11.27564851       4.65097172       7.69750171      -0.01405962       0.00358334       0.00563470
Mg      -3.22279697       5.58470555       5.13280180       0.00807306      -0.01379469       0.00382040
Mg      -3.22447650       7.44296805       7.70678171       0.00058451       0.00061986      -0.01825862
Mg      -0.00608726       5.57628222       5.12886597       0.00810897       0.01262783       0.00795103
Mg      -0.00352049       7.44374465       7.70535058       0.00869792      -0.01047671      -0.02331548
Mg       3.22367793       5.57024770       5.13852323      -0.01211348       0.03269751      -0.00657943
Mg       3.21427581       7.44487769       7.71050581       0.00656789      -0.02468350      -0.04509954
Mg       6.45348440       5.56971543       5.13511294      -0.02648158       0.02693862      -0.00154676
Mg       6.44643319       7.44122017       7.69582359      -0.02155330      -0.01202488       0.00959114
Mg       9.66820240       5.57451961       5.12816441      -0.00969430       0.00975941       0.02231200
Mg       9.65970127       7.44269639       7.70618240       0.00762085      -0.00122744      -0.02428781
Mg      11.27411094       8.36031318       5.12874016      -0.01424024       0.02092198       0.01379776
Mg      -4.83246207      10.22592643       7.69729291      -0.00253461       0.01385471      -0.00197697
Mg      -1.62026321       8.36390333       5.12921459       0.02882376       0.00252954       0.01406236
Mg      -1.60356650      10.22762734       7.69769588      -0.01158484      -0.00381145       0.01102104
Mg       1.60583634       8.37208624       5.12557040       0.00521124      -0.03106150       0.02106435
Mg       1.62253093      10.22813775       7.69988661      -0.03015671       0.00532901      -0.00638915
Mg       4.83458553       8.37019422       5.13438183      -0.01992731      -0.02624144      -0.00332250
Mg       4.82375254      10.22190632       7.70212477       0.01581696       0.00607198      -0.01478844
Mg       8.04654345       8.36956276       5.13091318       0.02617808      -0.01788587       0.00392285
Mg       8.04167247      10.22104549       7.70407914       0.02910982       0.02311733      -0.00457595
Mg       0.00302242       0.00006571      10.27492086      -0.00625206       0.00076822      -0.02551104
Mg      -0.00259206       1.85900685      12.83209557      -0.00082753      -0.00251204      -0.00138727
Mg      -3.22232264      11.15588404      10.26667548       0.02403881      -0.00329856      -0.00258724
Mg       3.21400499       1.86855308      12.83696070       0.03157937      -0.02351152      -0.00467565
Mg       6.44537117       0.00367170      10.25731787      -0.01249090      -0.01432358       0.03849720
Mg       6.44422480       1.86976099      12.83687770      -0.01993525      -0.02788160      -0.03146534
Mg       9.67282529       0.00154104      10.26075233      -0.02427056       0.00906727       0.01869295
Mg       9.66213771       1.86269372      12.83219705       0.00814333      -0.01601113      -0.00522312
Mg       6.44456856      11.15278846      10.26253592      -0.00508988       0.01519126       0.01691985
Mg      12.88089384       1.85951882      12.83666536      -0.00714169      -0.00652126      -0.02050802
Mg      -1.61011688       2.79220696      10.26817697       0.00792325      -0.00458549      -0.00746596
Mg      -1.61664379       4.65026652      12.83031321       0.01925448      -0.00044419       0.00130940
Mg       1.61756249       2.78219015      10.27594054      -0.02244908       0.01684593      -0.04072949
Mg       1.61027994       4.64381185      12.82555849      -0.00315145       0.02205823       0.01270863
Mg       4.82558022       2.80063588      10.26742415       0.01787493      -0.03590553      -0.00086032
Mg       4.83151831       4.65972986      12.82886992      -0.01077487      -0.01943403       0.01597913
Mg       8.05478525       2.79024633      10.26737133      -0.00502453      -0.00147173      -0.02588935
Mg       8.06007822       4.63896850      12.83266008      -0.01532871       0.02840613       0.00713672
Mg      11.27738171       2.79872054      10.26436910      -0.00487722      -0.01954368       0.00372140
Mg      11.27654632       4.65101512      12.82530334      -0.00931641      -0.00145321       0.02255466
Mg      -3.20978911       5.58473780      10.26548872      -0.03414100      -0.01708647      -0.00752873
Mg      -3.22040748       7.42969947      12.82844153       0.00688607       0.01669321       0.02796365
Mg       0.00497394       5.58208870      10.26947906       0.00294577      -0.02448832      -0.01496295
Mg       0.00718812       7.43556140      12.83692343      -0.02693117       0.00638817      -0.00523686
Mg       3.22380482       5.58005867      10.26150839      -0.01343829      -0.00781914      -0.00012932
Mg       3.21552102       7.44096379      12.82120860       0.01284791      -0.00571100       0.01847402
Mg       6.44075433       5.57902726      10.27642466       0.00839446       0.00040831      -0.03486321
Mg       6.43959395       7.42708830      12.83330373       0.01119431       0.03217635       0.00029080
Mg       9.65548817       5.57369961      10.26468585       0.02320813       0.01285054      -0.00802599
Mg       9.66941083       7.43018812      12.82237195      -0.02170847       0.01410165       0.01971737
Mg      -4.82948885       8.37450763      10.26898924      -0.00243870      -0.01779400      -0.00726881
Mg      -4.81913444      10.22368700      12.83415711      -0.03260176       0.01167190       0.00439643
Mg      -1.61244585       8.34920829      10.26586845       0.01309921       0.06476531       0.01348487
Mg      -1.61872667      10.22333055      12.83931896       0.03314481       0.01667900      -0.02273607
Mg       1.61320491       8.36839480      10.26770732      -0.01381174       0.00963964      -0.00113436
Mg       1.61034645      10.22557378      12.83733411      -0.01182975       0.01546387      -0.02186171
Mg       4.83346763       8.36886136      10.25944901       0.00521850      -0.00629799       0.02052133
Mg       4.82517935      10.22524165      12.82712189       0.01305514       0.00453384       0.01026828
Mg       8.05402339       8.36929088      10.26246170      -0.00646958      -0.01065856       0.01751892
Mg       8.04452005      10.22522034      12.82704490       0.01033726      -0.00113786       0.01794520
120
Lattice="16.102935 0.0 0.0 -6.441174 11.15644063 0.0 0.0 0.0 15.3984" Properties=species:S:1:pos:R:3:forces:R:3 energy=-180.49961617 stress="0.003858137748204995 0.00083166298440597 -3.558471597939822e-06 0.00083166298440597 0.006923972779268756 1.7886230286952396e-06 -3.558471597939822e-06 1.7886230286952396e-06 0.0021894819675051897" free_energy=-180.49788639 pbc="T T T"
Mg       9.65981689      11.14582360      15.39415266      -0.01283341       0.02241716      -0.00737154
Mg       0.00093761       1.83351260       2.57726947      -0.01907466       0.08417771      -0.04639486
Mg       3.21727488       0.00753238       0.01301442       0.01152190       0.00130922      -0.01171189
Mg       3.20811003       1.86427849       2.57577568       0.01658167       0.03408403      -0.03294153
Mg       6.44340210       0.02158838      15.39665459      -0.01155635      -0.06420467       0.00909758
Mg       6.42851352       1.85486848       2.57460678       0.01732677       0.02883352      -0.02731993
Mg       9.65925635       0.00091204       0.00405440       0.00487748      -0.01245386      -0.00471453
Mg       9.65368077       1.86396165       2.56077502       0.02530198      -0.01320070       0.00826726
Mg       6.42329823      11.15090882       0.00754352       0.05298877      -0.00843794      -0.03774891
Mg      12.87421457       1.86836298       2.54892702       0.02406915      -0.02276308       0.04339565
Mg      -1.60167959       2.78335098      15.37204564      -0.00177942      -0.00929644       0.08628416
Mg      -1.63013850       4.66004146       2.56411139       0.04876994      -0.04735559       0.01235148
Mg       1.61098306       2.78207401      15.38488513      -0.00160202       0.02616345       0.06354804
Mg       1.59029578       4.66845966       2.56788199       0.04510349      -0.05821699      -0.00976467
Mg       4.84964789       2.79807759      15.38817485      -0.07501646       0.01497032       0.04987190
Mg       4.84019569       4.65914917       2.59543081      -0.03867018      -0.01780320      -0.09311484
Mg       8.04055657       2.77706633      15.39533202       0.04682840       0.03693181       0.03279925
Mg       8.06533010       4.65353870       2.57494801      -0.04060430      -0.02895718      -0.02575093
Mg      11.27975106       2.78135030      15.39319780      -0.03606346       0.03781249       0.00425362
Mg      11.27040166       4.64957080       2.57991692       0.00607762      -0.00208297      -0.04355445
Mg      -3.20731596       5.55963123       0.01020683      -0.05572829       0.05700730      -0.02163965
Mg      -3.21426518       7.44985916       2.56861065      -0.02545426      -0.00980131      -0.03263331
Mg      -0.00186259       5.57016838       0.00238352      -0.01287257      -0.00136691      -0.02783709
Mg       0.00166379       7.44155865       2.54585397      -0.00943555       0.00734955       0.05607718
Mg       3.20316952       5.59764156      15.38281066       0.04459648      -0.06587946       0.03840433
Mg       3.22728795       7.43741682       2.56055744      -0.01415717       0.01147538       0.02370261
Mg       6.43637845       5.56987351       0.00065412       0.00565526       0.01751296       0.01901665
Mg       6.44796660       7.43249483       2.56954348       0.00275714       0.00967875      -0.01960843
Mg       9.64802272       5.57400273       0.01459291       0.05300358      -0.01118295      -0.05044485
Mg       9.66646428       7.42588876       2.56736276      -0.00970121       0.03857409      -0.00201665
Mg      11.25685584       8.37721129      15.39581569       0.05617000      -0.05630690      -0.00027038
Mg      -4.83591885      10.22702780       2.56365744       0.01226105      -0.00806834       0.02416522
Mg      -1.61004123       8.37953015       0.01890015      -0.01981918      -0.01822017      -0.05458945
Mg      -1.60362321      10.24636938       2.57932809      -0.01593752      -0.03541595      -0.04520807