48
Lattice="5.31263983 -9.2017621 0.0 5.31263983 9.2017621 0.0 0.0 0.0 9.76473" Properties=species:S:1:pos:R:3:forces:R:3 energy=-89.551109 stress="0.0004349348198902392 -0.0 -0.0 -0.0 0.0004349348198902392 0.0 -0.0 0.0 0.002969444253670638" free_energy=-89.54982131 pbc="T T T"
Mg       2.65631991      -1.53362696       2.44118250      -0.00000000      -0.00000000      -0.00000000
Mg       6.15352446       7.74530719       0.00000000       0.01273844      -0.02206362      -0.00000000
Mg       3.63087057      -0.00000000       0.00000000      -0.02547687      -0.00000000      -0.00000000
Mg       6.15352446      -7.74530719       0.00000000       0.01273844       0.02206362       0.00000000
Mg       2.65631992       1.53362696       2.44118250      -0.00000000      -0.00000000      -0.00000000
Mg       5.31263983      -6.13450801       2.44118250      -0.00000000      -0.00000000      -0.00000000
Mg       8.80984438       3.14442614       0.00000000       0.01273844      -0.02206362       0.00000000
Mg       6.28719048      -4.60088105       0.00000000      -0.02547687      -0.00000000      -0.00000000
Mg       3.49720455      -3.14442614       0.00000000       0.01273844       0.02206362      -0.00000000
Mg       5.31263983      -3.06725409       2.44118250      -0.00000000      -0.00000000      -0.00000000
Mg       5.31263983       3.06725409       2.44118250      -0.00000000      -0.00000000       0.00000000
Mg       3.49720455       3.14442614       0.00000000       0.01273844      -0.02206362      -0.00000000
Mg       6.28719048       4.60088105       0.00000000      -0.02547687      -0.00000000      -0.00000000
Mg       8.80984438      -3.14442614       0.00000000       0.01273844       0.02206362       0.00000000
Mg       5.31263983       6.13450801       2.44118250      -0.00000000      -0.00000000       0.00000000
Mg       7.96895975      -1.53362696       2.44118250      -0.00000000      -0.00000000       0.00000000
Mg       6.15352446      -1.45645491       0.00000000       0.01273844      -0.02206362      -0.00000000
Mg       8.94351040       0.00000000       0.00000000      -0.02547687      -0.00000000      -0.00000000
Mg       6.15352446       1.45645491       0.00000000       0.01273844       0.02206362       0.00000000
Mg       7.96895975       1.53362696       2.44118250      -0.00000000      -0.00000000       0.00000000
Mg       2.65631991      -1.53362696       7.32354750      -0.00000000      -0.00000000      -0.00000000
Mg       6.15352446       7.74530719       4.88236500       0.01273844      -0.02206362       0.00000000
Mg       3.63087057      -0.00000000       4.88236500      -0.02547687      -0.00000000      -0.00000000
Mg       6.15352446      -7.74530719       4.88236500       0.01273844       0.02206362       0.00000000
Mg       2.65631992       1.53362696       7.32354750      -0.00000000      -0.00000000      -0.00000000
Mg       5.31263983      -6.13450801       7.32354750      -0.00000000      -0.00000000       0.00000000
Mg       8.80984438       3.14442614       4.88236500       0.01273844      -0.02206362      -0.00000000
Mg       6.28719048      -4.60088105       4.88236500      -0.02547687      -0.00000000      -0.00000000
Mg       3.49720455      -3.14442614       4.88236500       0.01273844       0.02206362       0.00000000
Mg       5.31263983      -3.06725409       7.32354750      -0.00000000      -0.00000000      -0.00000000
Mg       5.31263983       3.06725409       7.32354750      -0.00000000      -0.00000000       0.00000000
Mg       3.49720455       3.14442614       4.88236500       0.01273844      -0.02206362       0.00000000
Mg       6.28719048       4.60088105       4.88236500      -0.02547687      -0.00000000      -0.00000000
Mg       8.80984438      -3.14442614       4.88236500       0.01273844       0.02206362       0.00000000
Mg       5.31263983       6.13450801       7.32354750      -0.00000000      -0.00000000       0.00000000
Mg       7.96895975      -1.53362696       7.32354750      -0.00000000      -0.00000000       0.00000000
Mg       6.15352446      -1.45645491       4.88236500       0.01273844      -0.02206362      -0.00000000
Mg       8.94351040       0.00000000       4.88236500      -0.02547687      -0.00000000      -0.00000000
Mg       6.15352446       1.45645491       4.88236500       0.01273844       0.02206362      -0.00000000
Mg       7.96895975       1.53362696       7.32354750      -0.00000000      -0.00000000       0.00000000
Cu       0.00000000       0.00000000       2.44118250      -0.00000000      -0.00000000      -0.00000000
Cu       7.96895975       4.60088105       2.44118250      -0.00000000      -0.00000000      -0.00000000
Cu       7.96895975      -4.60088105       2.44118250      -0.00000000      -0.00000000       0.00000000
Cu       5.31263983       0.00000000       2.44118250      -0.00000000      -0.00000000       0.00000000
Cu       0.00000000       0.00000000       7.32354750      -0.00000000      -0.00000000       0.00000000
Cu       7.96895975       4.60088105       7.32354750      -0.00000000      -0.00000000       0.00000000
Cu       7.96895975      -4.60088105       7.32354750      -0.00000000      -0.00000000      -0.00000000
Cu       5.31263983       0.00000000       7.32354750      -0.00000000      -0.00000000      -0.00000000
48
Lattice="5.31042268 -9.19792188 0.0 5.31042268 9.19792188 -0.0 0.0 0.0 9.73690746" Properties=species:S:1:pos:R:3:forces:R:3 energy=-89.55621429 stress="-0.00016593450219442874 -0.0 0.0 -0.0 -0.00016593450219442874 -0.0 0.0 -0.0 0.0010497321756949708" free_energy=-89.55571758 pbc="T T T"
Mg       2.65521134      -1.53298692       2.43422686       0.00000000      -0.00000000      -0.00000000
Mg       6.15157064       7.74101088       0.00000000       0.00669260      -0.01159193       0.00000000
Mg       3.62812676      -0.00000000       0.00000000      -0.01338521      -0.00000000      -0.00000000
Mg       6.15157064      -7.74101088       0.00000000       0.00669260       0.01159193      -0.00000000
Mg       2.65521134       1.53298692       2.43422686       0.00000000      -0.00000000      -0.00000000
Mg       5.31042268      -6.13194786       2.43422686       0.00000000      -0.00000000       0.00000000
Mg       8.80678198       3.14204994       0.00000000       0.00669260      -0.01159193       0.00000000
Mg       6.28333810      -4.59896094       0.00000000      -0.01338521      -0.00000000      -0.00000000
Mg       3.49635930      -3.14204994       0.00000000       0.00669260       0.01159193      -0.00000000
Mg       5.31042268      -3.06597402       2.43422686       0.00000000      -0.00000000       0.00000000
Mg       5.31042268       3.06597402       2.43422686       0.00000000      -0.00000000      -0.00000000
Mg       3.49635930       3.14204994       0.00000000       0.00669260      -0.01159193       0.00000000
Mg       6.28333810       4.59896094       0.00000000      -0.01338521      -0.00000000      -0.00000000
Mg       8.80678198      -3.14204994       0.00000000       0.00669260       0.01159193      -0.00000000
Mg       5.31042268       6.13194786       2.43422686       0.00000000      -0.00000000      -0.00000000
Mg       7.96563402      -1.53298692       2.43422686       0.00000000      -0.00000000      -0.00000000
Mg       6.15157064      -1.45691100       0.00000000       0.00669260      -0.01159193       0.00000000
Mg       8.93854944       0.00000000       0.00000000      -0.01338521      -0.00000000      -0.00000000
Mg       6.15157064       1.45691100       0.00000000       0.00669260       0.01159193      -0.00000000
Mg       7.96563402       1.53298692       2.43422686       0.00000000      -0.00000000      -0.00000000
Mg       2.65521134      -1.53298692       7.30268059       0.00000000      -0.00000000      -0.00000000
Mg       6.15157064       7.74101088       4.86845373       0.00669260      -0.01159193       0.00000000
Mg       3.62812676      -0.00000000       4.86845373      -0.01338521      -0.00000000      -0.00000000
Mg       6.15157064      -7.74101088       4.86845373       0.00669260       0.01159193      -0.00000000
Mg       2.65521134       1.53298692       7.30268059       0.00000000      -0.00000000      -0.00000000
Mg       5.31042268      -6.13194786       7.30268059       0.00000000      -0.00000000      -0.00000000
Mg       8.80678198       3.14204994       4.86845373       0.00669260      -0.01159193       0.00000000
Mg       6.28333810      -4.59896094       4.86845373      -0.01338521      -0.00000000      -0.00000000
Mg       3.49635930      -3.14204994       4.86845373       0.00669260       0.01159193      -0.00000000
Mg       5.31042268      -3.06597402       7.30268059       0.00000000      -0.00000000      -0.00000000
Mg       5.31042268       3.06597402       7.30268059       0.00000000      -0.00000000      -0.00000000
Mg       3.49635930       3.14204994       4.86845373       0.00669260      -0.01159193       0.00000000
Mg       6.28333810       4.59896094       4.86845373      -0.01338521      -0.00000000      -0.00000000
Mg       8.80678198      -3.14204994       4.86845373       0.00669260       0.01159193      -0.00000000
Mg       5.31042268       6.13194786       7.30268059       0.00000000      -0.00000000      -0.00000000
Mg       7.96563402      -1.53298692       7.30268059       0.00000000      -0.00000000      -0.00000000
Mg       6.15157064      -1.45691100       4.86845373       0.00669260      -0.01159193       0.00000000
Mg       8.93854944       0.00000000       4.86845373      -0.01338521      -0.00000000      -0.00000000
Mg       6.15157064       1.45691100       4.86845373       0.00669260       0.01159193      -0.00000000
Mg       7.96563402       1.53298692       7.30268059       0.00000000      -0.00000000      -0.00000000
Cu       0.00000000       0.00000000       2.43422686       0.00000000      -0.00000000      -0.00000000
Cu       7.96563402       4.59896094       2.43422686       0.00000000      -0.00000000      -0.00000000
Cu       7.96563402      -4.59896094       2.43422686       0.00000000      -0.00000000      -0.00000000
Cu       5.31042268       0.00000000       2.43422686       0.00000000      -0.00000000       0.00000000
Cu       0.00000000       0.00000000       7.30268059       0.00000000      -0.00000000       0.00000000
Cu       7.96563402       4.59896094       7.30268059       0.00000000      -0.00000000       0.00000000
Cu       7.96563402      -4.59896094       7.30268059       0.00000000      -0.00000000       0.00000000
Cu       5.31042268       0.00000000       7.30268059       0.00000000      -0.00000000      -0.00000000
48
Lattice="5.3082213 -9.19410899 0.0 5.3082213 9.19410899 -0.0 0.0 0.0 9.70928297" Properties=species:S:1:pos:R:3:forces:R:3 energy=-89.55539053 stress="-0.0009408868350901853 0.0 -0.0 0.0 -0.0009408868350901853 -0.0 -0.0 -0.0 -0.0007958119869227343" free_energy=-89.55568219 pbc="T T T"
Mg       2.65411065      -1.53235144       2.42732074       0.00000000       0.00000000       0.00000000
Mg       6.14963048       7.73674553       0.00000000       0.00008956      -0.00015512       0.00000000
Mg       3.62540293       0.00000000       0.00000000      -0.00017911       0.00000000      -0.00000000
Mg       6.14963048      -7.73674553       0.00000000       0.00008956       0.00015512       0.00000000
Mg       2.65411065       1.53235144       2.42732074       0.00000000       0.00000000       0.00000000
Mg       5.30822130      -6.12940593       2.42732074       0.00000000       0.00000000      -0.00000000
Mg       8.80374113       3.13969104       0.00000000       0.00008956      -0.00015512      -0.00000000
Mg       6.27951358      -4.59705450       0.00000000      -0.00017911       0.00000000      -0.00000000
Mg       3.49551983      -3.13969104       0.00000000       0.00008956       0.00015512       0.00000000
Mg       5.30822130      -3.06470306       2.42732074       0.00000000       0.00000000      -0.00000000
Mg       5.30822130       3.06470306       2.42732074       0.00000000       0.00000000      -0.00000000
Mg       3.49551983       3.13969104       0.00000000       0.00008956      -0.00015512      -0.00000000
Mg       6.27951358       4.59705450       0.00000000      -0.00017911       0.00000000      -0.00000000
Mg       8.80374113      -3.13969104       0.00000000       0.00008956       0.00015512      -0.00000000
Mg       5.30822130       6.12940593       2.42732074       0.00000000       0.00000000       0.00000000
Mg       7.96233195      -1.53235144       2.42732074       0.00000000       0.00000000      -0.00000000
Mg       6.14963048      -1.45736346       0.00000000       0.00008956      -0.00015512       0.00000000
Mg       8.93362423      -0.00000000       0.00000000      -0.00017911       0.00000000      -0.00000000
Mg       6.14963048       1.45736346       0.00000000       0.00008956       0.00015512       0.00000000
Mg       7.96233195       1.53235144       2.42732074       0.00000000       0.00000000      -0.00000000
Mg       2.65411065      -1.53235144       7.28196223       0.00000000       0.00000000      -0.00000000
Mg       6.14963048       7.73674553       4.85464149       0.00008956      -0.00015512       0.00000000
Mg       3.62540293       0.00000000       4.85464149      -0.00017911       0.00000000      -0.00000000
Mg       6.14963048      -7.73674553       4.85464149       0.00008956       0.00015512       0.00000000
Mg       2.65411065       1.53235144       7.28196223       0.00000000       0.00000000       0.00000000
Mg       5.30822130      -6.12940593       7.28196223       0.00000000       0.00000000      -0.00000000
Mg       8.80374113       3.13969104       4.85464149       0.00008956      -0.00015512       0.00000000
Mg       6.27951358      -4.59705450       4.85464149      -0.00017911       0.00000000       0.00000000
Mg       3.49551983      -3.13969104       4.85464149       0.00008956       0.00015512       0.00000000
Mg       5.30822130      -3.06470306       7.28196223       0.00000000       0.00000000       0.00000000
Mg       5.30822130       3.06470306       7.28196223       0.00000000       0.00000000       0.00000000
Mg       3.49551983       3.13969104       4.85464149       0.00008956      -0.00015512      -0.00000000
Mg       6.27951358       4.59705450       4.85464149      -0.00017911       0.00000000      -0.00000000
Mg       8.80374113      -3.13969104       4.85464149       0.00008956       0.00015512      -0.00000000
Mg       5.30822130       6.12940593       7.28196223       0.00000000       0.00000000       0.00000000
Mg       7.96233195      -1.53235144       7.28196223       0.00000000       0.00000000      -0.00000000
Mg       6.14963048      -1.45736346       4.85464149       0.00008956      -0.00015512       0.00000000
Mg       8.93362423      -0.00000000       4.85464149      -0.00017911       0.00000000      -0.00000000
Mg       6.14963048       1.45736346       4.85464149       0.00008956       0.00015512       0.00000000
Mg       7.96233195       1.53235144       7.28196223       0.00000000       0.00000000      -0.00000000
Cu       0.00000000       0.00000000       2.42732074       0.00000000       0.00000000      -0.00000000
Cu       7.96233195       4.59705450       2.42732074       0.00000000       0.00000000      -0.00000000
Cu       7.96233195      -4.59705450       2.42732074       0.00000000       0.00000000       0.00000000
Cu       5.30822130       0.00000000       2.42732074       0.00000000       0.00000000       0.00000000
Cu       0.00000000       0.00000000       7.28196223       0.00000000       0.00000000       0.00000000
Cu       7.96233195       4.59705450       7.28196223       0.00000000       0.00000000       0.00000000
Cu       7.96233195      -4.59705450       7.28196223       0.00000000       0.00000000      -0.00000000
Cu       5.30822130       0.00000000       7.28196223       0.00000000       0.00000000      -0.00000000
48
Lattice="5.30928157 -9.19594542 0.0 5.30928157 9.19594542 -0.0 0.0 0.0 9.72258799" Properties=species:S:1:pos:R:3:forces:R:3 energy=-89.55643533 stress="-0.0005293958662163497 0.0 0.0 0.0 -0.0005293958662163497 0.0 0.0 0.0 8.694358548962294e-05" free_energy=-89.55636048 pbc="T T T"
Mg       2.65464078      -1.53265751       2.43064700      -0.00000000       0.00000000       0.00000000
Mg       6.15056490       7.73879996       0.00000000       0.00369092      -0.00639287       0.00000000
Mg       3.62671492       0.00000000       0.00000000      -0.00738185       0.00000000       0.00000000
Mg       6.15056490      -7.73879996       0.00000000       0.00369092       0.00639287      -0.00000000
Mg       2.65464078       1.53265751       2.43064700      -0.00000000       0.00000000       0.00000000
Mg       5.30928157      -6.13063022       2.43064700      -0.00000000       0.00000000       0.00000000
Mg       8.80520568       3.14082725       0.00000000       0.00369092      -0.00639287       0.00000000
Mg       6.28135570      -4.59797271       0.00000000      -0.00738185       0.00000000       0.00000000
Mg       3.49592411      -3.14082725       0.00000000       0.00369092       0.00639287      -0.00000000
Mg       5.30928157      -3.06531520       2.43064700      -0.00000000       0.00000000      -0.00000000
Mg       5.30928157       3.06531520       2.43064700      -0.00000000       0.00000000      -0.00000000
Mg       3.49592411       3.14082725       0.00000000       0.00369092      -0.00639287       0.00000000
Mg       6.28135570       4.59797271       0.00000000      -0.00738185       0.00000000       0.00000000
Mg       8.80520568      -3.14082725       0.00000000       0.00369092       0.00639287      -0.00000000
Mg       5.30928157       6.13063022       2.43064700      -0.00000000       0.00000000       0.00000000
Mg       7.96392235      -1.53265751       2.43064700      -0.00000000       0.00000000      -0.00000000
Mg       6.15056490      -1.45714546       0.00000000       0.00369092      -0.00639287       0.00000000
Mg       8.93599649       0.00000000       0.00000000      -0.00738185       0.00000000       0.00000000
Mg       6.15056490       1.45714546       0.00000000       0.00369092       0.00639287      -0.00000000
Mg       7.96392235       1.53265751       2.43064700      -0.00000000       0.00000000       0.00000000
Mg       2.65464078      -1.53265751       7.29194099      -0.00000000       0.00000000      -0.00000000
Mg       6.15056490       7.73879996       4.86129399       0.00369092      -0.00639287       0.00000000
Mg       3.62671492       0.00000000       4.86129399      -0.00738185       0.00000000       0.00000000
Mg       6.15056490      -7.73879996       4.86129399       0.00369092       0.00639287      -0.00000000
Mg       2.65464078       1.53265751       7.29194099      -0.00000000       0.00000000      -0.00000000
Mg       5.30928157      -6.13063022       7.29194099      -0.00000000       0.00000000      -0.00000000
Mg       8.80520568       3.14082725       4.86129399       0.00369092      -0.00639287      -0.00000000
Mg       6.28135570      -4.59797271       4.86129399      -0.00738185       0.00000000       0.00000000
Mg       3.49592411      -3.14082725       4.86129399       0.00369092       0.00639287      -0.00000000
Mg       5.30928157      -3.06531520       7.29194099      -0.00000000       0.00000000       0.00000000
Mg       5.30928157       3.06531520       7.29194099      -0.00000000       0.00000000       0.00000000
Mg       3.49592411       3.14082725       4.86129399       0.00369092      -0.00639287       0.00000000
Mg       6.28135570       4.59797271       4.86129399      -0.00738185       0.00000000       0.00000000
Mg       8.80520568      -3.14082725       4.86129399       0.00369092       0.00639287      -0.00000000
Mg       5.30928157       6.13063022       7.29194099      -0.00000000       0.00000000      -0.00000000
Mg       7.96392235      -1.53265751       7.29194099      -0.00000000       0.00000000      -0.00000000
Mg       6.15056490      -1.45714546       4.86129399       0.00369092      -0.00639287       0.00000000
Mg       8.93599649       0.00000000       4.86129399      -0.00738185       0.00000000       0.00000000
Mg       6.15056490       1.45714546       4.86129399       0.00369092       0.00639287      -0.00000000
Mg       7.96392235       1.53265751       7.29194099      -0.00000000       0.00000000       0.00000000
Cu       0.00000000       0.00000000       2.43064700      -0.00000000       0.00000000      -0.00000000
Cu       7.96392235       4.59797271       2.43064700      -0.00000000       0.00000000       0.00000000
Cu       7.96392235      -4.59797271       2.43064700      -0.00000000       0.00000000      -0.00000000
Cu       5.30928157       0.00000000       2.43064700      -0.00000000       0.00000000       0.00000000
Cu       0.00000000       0.00000000       7.29194099      -0.00000000       0.00000000      -0.00000000
Cu       7.96392235       4.59797271       7.29194099      -0.00000000       0.00000000       0.00000000
Cu       7.96392235      -4.59797271       7.29194099      -0.00000000       0.00000000       0.00000000
Cu       5.30928157       0.00000000       7.29194099      -0.00000000       0.00000000      -0.00000000
48
Lattice="5.31209462 -9.20081776 0.0 5.31209462 9.20081776 -0.0 0.0 0.0 9.71988598" Properties=species:S:1:pos:R:3:forces:R:3 energy=-89.55663517 stress="-0.00027208120773996507 -0.0 0.0 -0.0 -0.00027208120773996507 -0.0 0.0 -0.0 4.915272697006265e-05" free_energy=-89.55684429 pbc="T T T"
Mg       2.65604731      -1.53346957       2.42997150      -0.00000000      -0.00000000       0.00000000
Mg       6.15406040       7.74249026       0.00000000       0.00108381      -0.00187721      -0.00000000
Mg       3.62816307       0.00000000       0.00000000      -0.00216762      -0.00000000       0.00000000
Mg       6.15406040      -7.74249026       0.00000000       0.00108381       0.00187721       0.00000000
Mg       2.65604731       1.53346957       2.42997150      -0.00000000      -0.00000000      -0.00000000
Mg       5.31209462      -6.13387845       2.42997150      -0.00000000      -0.00000000      -0.00000000
Mg       8.81010771       3.14208138       0.00000000       0.00108381      -0.00187721       0.00000000
Mg       6.28421038      -4.60040888       0.00000000      -0.00216762      -0.00000000       0.00000000
Mg       3.49801309      -3.14208138       0.00000000       0.00108381       0.00187721       0.00000000
Mg       5.31209462      -3.06693931       2.42997150      -0.00000000      -0.00000000      -0.00000000
Mg       5.31209462       3.06693931       2.42997150      -0.00000000      -0.00000000       0.00000000
Mg       3.49801309       3.14208138       0.00000000       0.00108381      -0.00187721       0.00000000
Mg       6.28421038       4.60040888       0.00000000      -0.00216762      -0.00000000      -0.00000000
Mg       8.81010771      -3.14208138       0.00000000       0.00108381       0.00187721      -0.00000000
Mg       5.31209462       6.13387845       2.42997150      -0.00000000      -0.00000000      -0.00000000
Mg       7.96814193      -1.53346957       2.42997150      -0.00000000      -0.00000000      -0.00000000
Mg       6.15406040      -1.45832750       0.00000000       0.00108381      -0.00187721       0.00000000
Mg       8.94025769       0.00000000       0.00000000      -0.00216762      -0.00000000      -0.00000000
Mg       6.15406040       1.45832750       0.00000000       0.00108381       0.00187721      -0.00000000
Mg       7.96814193       1.53346957       2.42997150      -0.00000000      -0.00000000      -0.00000000
Mg       2.65604731      -1.53346957       7.28991449      -0.00000000      -0.00000000       0.00000000
Mg       6.15406040       7.74249026       4.85994299       0.00108381      -0.00187721       0.00000000
Mg       3.62816307       0.00000000       4.85994299      -0.00216762      -0.00000000      -0.00000000
Mg       6.15406040      -7.74249026       4.85994299       0.00108381       0.00187721      -0.00000000
Mg       2.65604731       1.53346957       7.28991449      -0.00000000      -0.00000000      -0.00000000
Mg       5.31209462      -6.13387845       7.28991449      -0.00000000      -0.00000000       0.00000000
Mg       8.81010771       3.14208138       4.85994299       0.00108381      -0.00187721      -0.00000000
Mg       6.28421038      -4.60040888       4.85994299      -0.00216762      -0.00000000      -0.00000000
Mg       3.49801309      -3.14208138       4.85994299       0.00108381       0.00187721      -0.00000000
Mg       5.31209462      -3.06693931       7.28991449      -0.00000000      -0.00000000      -0.00000000
Mg       5.31209462       3.06693931       7.28991449      -0.00000000      -0.00000000       0.00000000
Mg       3.49801309       3.14208138       4.85994299       0.00108381      -0.00187721       0.00000000
Mg       6.28421038       4.60040888       4.85994299      -0.00216762      -0.00000000       0.00000000
Mg       8.81010771      -3.14208138       4.85994299       0.00108381       0.00187721       0.00000000
Mg       5.31209462       6.13387845       7.28991449      -0.00000000      -0.00000000      -0.00000000
Mg       7.96814193      -1.53346957       7.28991449      -0.00000000      -0.00000000       0.00000000
Mg       6.15406040      -1.45832750       4.85994299       0.00108381      -0.00187721       0.00000000
Mg       8.94025769       0.00000000       4.85994299      -0.00216762      -0.00000000       0.00000000
Mg       6.15406040       1.45832750       4.85994299       0.00108381       0.00187721       0.00000000
Mg       7.96814193       1.53346957       7.28991449      -0.00000000      -0.00000000      -0.00000000
Cu       0.00000000       0.00000000       2.42997150      -0.00000000      -0.00000000      -0.00000000
Cu       7.96814193       4.60040888       2.42997150      -0.00000000      -0.00000000       0.00000000
Cu       7.96814193      -4.60040888       2.42997150      -0.00000000      -0.00000000       0.00000000
Cu       5.31209462       0.00000000       2.42997150      -0.00000000      -0.00000000       0.00000000
Cu       0.00000000       0.00000000       7.28991449      -0.00000000      -0.00000000       0.00000000
Cu       7.96814193       4.60040888       7.28991449      -0.00000000      -0.00000000      -0.00000000
Cu       7.96814193      -4.60040888       7.28991449      -0.00000000      -0.00000000      -0.00000000
Cu       5.31209462       0.00000000       7.28991449      -0.00000000      -0.00000000      -0.00000000
