120
Lattice="15.9435 0.0 -0.0797175 -6.3774 11.04598082 -0.0233429 -0.076992 -0.076992 15.3984" Properties=species:S:1:pos:R:3:forces:R:3 energy=-180.4931604 stress="-0.0013335537994139232 0.0004642481985716415 -0.0014498141090338397 0.0004642481985716415 0.0019112249986964736 -0.0014874450476065767 -0.0014498141090338397 -0.0014874450476065767 -0.0010555764065234823" free_energy=-180.4928863 pbc="T T T"
Mg       0.00000000       0.00000000       0.00000000       0.00125523      -0.00108800      -0.00028141
Mg      -0.01283197       1.82816484       2.55719507      -0.00306175       0.00231587       0.00036804
Mg       3.18870000       0.00000000      -0.01594350       0.00005276      -0.00107641      -0.00201285
Mg       3.17586803       1.82816484       2.54125157       0.00345835       0.00304006       0.00116479
Mg       6.37740000       0.00000000      -0.03188700       0.00379459      -0.00916062       0.00082257
Mg       6.36456803       1.82816484       2.52530807      -0.00341619      -0.00085115      -0.00103599
Mg       9.56610000       0.00000000      -0.04783050      -0.00142560       0.00700626      -0.00150464
Mg       9.55326803       1.82816484       2.50936457      -0.00087261       0.00299625       0.00370122
Mg      12.75480000       0.00000000      -0.06377400       0.00242932      -0.00101535       0.00143473
Mg      12.74196803       1.82816484       2.49342107      -0.00062329       0.00308856      -0.00095366
Mg      -1.59435000       2.76149521      -0.00583572       0.00125321      -0.00108620      -0.00028046
Mg      -1.60718197       4.58966004       2.55135934      -0.00306500       0.00231638       0.00036805
Mg       1.59435000       2.76149521      -0.02177922       0.00005120      -0.00107487      -0.00201330
Mg       1.58151803       4.58966004       2.53541584       0.00345417       0.00304051       0.00116772
Mg       4.78305000       2.76149521      -0.03772272       0.00379601      -0.00916347       0.00082118
Mg       4.77021803       4.58966004       2.51947234      -0.00341752      -0.00085265      -0.00103665
Mg       7.97175000       2.76149521      -0.05366622      -0.00142191       0.00700137      -0.00150470
Mg       7.95891803       4.58966004       2.50352884      -0.00087199       0.00299350       0.00369917
Mg      11.16045000       2.76149521      -0.06960972       0.00242957      -0.00101542       0.00143535
Mg      11.14761803       4.58966004       2.48758534      -0.00062006       0.00308565      -0.00095189
Mg      -3.18870000       5.52299041      -0.01167145       0.00125469      -0.00108833      -0.00028255
Mg      -3.20153197       7.35115525       2.54552362      -0.00305977       0.00231534       0.00036678
Mg       0.00000000       5.52299041      -0.02761495       0.00004964      -0.00107327      -0.00201385
Mg      -0.01283197       7.35115525       2.52958012       0.00345497       0.00304023       0.00116298
Mg       3.18870000       5.52299041      -0.04355845       0.00379425      -0.00916106       0.00082232
Mg       3.17586803       7.35115525       2.51363662      -0.00341769      -0.00084858      -0.00103622
Mg       6.37740000       5.52299041      -0.05950195      -0.00142151       0.00700312      -0.00150384
Mg       6.36456803       7.35115525       2.49769312      -0.00087211       0.00299649       0.00370031
Mg       9.56610000       5.52299041      -0.07544545       0.00243208      -0.00101711       0.00143362
Mg       9.55326803       7.35115525       2.48174962      -0.00061776       0.00308599      -0.00095275
Mg      -4.78305000       8.28448562      -0.01750717       0.00125642      -0.00108790      -0.00028054
Mg      -4.79588197      10.11265045       2.53968789      -0.00306054       0.00231520       0.00036758
Mg      -1.59435000       8.28448562      -0.03345067       0.00005181      -0.00107342      -0.00201378
Mg      -1.60718197      10.11265045       2.52374439       0.00345698       0.00303922       0.00116446
Mg       1.59435000       8.28448562      -0.04939417       0.00379267      -0.00915811       0.00082093
Mg       1.58151803      10.11265045       2.50780089      -0.00341874      -0.00084933      -0.00103685
Mg       4.78305000       8.28448562      -0.06533767      -0.00142402       0.00700722      -0.00150537
Mg       4.77021803      10.11265045       2.49185739      -0.00087353       0.00299663       0.00369983
Mg       7.97175000       8.28448562      -0.08128117       0.00243388      -0.00101571       0.00143483
Mg       7.95891803      10.11265045       2.47591389      -0.00061987       0.00308792      -0.00095398
Mg      -0.02566400      -0.02566400       5.13279995       0.00125408      -0.00108780      -0.00030051
Mg      -0.03849597       1.80250084       7.68999502      -0.00306213       0.00231586       0.00036102
Mg       3.16303600      -0.02566400       5.11685645       0.00005260      -0.00107811      -0.00203427
Mg       3.15020403       1.80250084       7.67405152       0.00345915       0.00303989       0.00115798
Mg       6.35173600      -0.02566400       5.10091295       0.00379501      -0.00916128       0.00080132
Mg       6.33890403       1.80250084       7.65810802      -0.00341516      -0.00084990      -0.00104312
Mg       9.54043600      -0.02566400       5.08496945      -0.00142359       0.00700602      -0.00152330
Mg       9.52760403       1.80250084       7.64216452      -0.00087375       0.00299630       0.00369387
Mg      12.72913600      -0.02566400       5.06902595       0.00242849      -0.00101382       0.00141704
Mg      12.71630403       1.80250084       7.62622102      -0.00062076       0.00308999      -0.00096113
Mg      -1.62001400       2.73583121       5.12696422       0.00125371      -0.00108841      -0.00030065
Mg      -1.63284597       4.56399605       7.68415929      -0.00306305       0.00231703       0.00036054
Mg       1.56868600       2.73583121       5.11102072       0.00005083      -0.00107456      -0.00203214
Mg       1.55585403       4.56399605       7.66821579       0.00345442       0.00304101       0.00116021
Mg       4.75738600       2.73583121       5.09507722       0.00379497      -0.00916226       0.00080300
Mg       4.74455403       4.56399605       7.65227229      -0.00341885      -0.00084955      -0.00104091
Mg       7.94608600       2.73583121       5.07913372      -0.00142256       0.00700389      -0.00152370
Mg       7.93325403       4.56399605       7.63632879      -0.00087148       0.00299462       0.00369582
Mg      11.13478600       2.73583121       5.06319022       0.00243130      -0.00101572       0.00141597
Mg      11.12195403       4.56399605       7.62038529      -0.00061980       0.00308497      -0.00095950
Mg      -3.21436400       5.49732641       5.12112850       0.00125605      -0.00108771      -0.00029975
Mg      -3.22719597       7.32549125       7.67832357      -0.00306070       0.00231397       0.00035997
Mg      -0.02566400       5.49732641       5.10518500       0.00004724      -0.00107409      -0.00203183
Mg      -0.03849597       7.32549125       7.66238007       0.00345486       0.00304129       0.00115927
Mg       3.16303600       5.49732641       5.08924150       0.00379344      -0.00916178       0.00080203
Mg       3.15020403       7.32549125       7.64643657      -0.00341880      -0.00085065      -0.00104391
Mg       6.35173600       5.49732641       5.07329800      -0.00142415       0.00700349      -0.00152360
Mg       6.33890403       7.32549125       7.63049307      -0.00087275       0.00299586       0.00369749
Mg       9.54043600       5.49732641       5.05735450       0.00243229      -0.00101842       0.00141562
Mg       9.52760403       7.32549125       7.61454957      -0.00061793       0.00308499      -0.00095932
Mg      -4.80871400       8.25882162       5.11529277       0.00125606      -0.00108987      -0.00029903
Mg      -4.82154597      10.08698646       7.67248784      -0.00305883       0.00231518       0.00036156
Mg      -1.62001400       8.25882162       5.09934927       0.00005279      -0.00107469      -0.00203453
Mg      -1.63284597      10.08698646       7.65654434       0.00345969       0.00304068       0.00115861
Mg       1.56868600       8.25882162       5.08340577       0.00379163      -0.00915937       0.00080492
Mg       1.55585403      10.08698646       7.64060084      -0.00341762      -0.00085069      -0.00104190
Mg       4.75738600       8.25882162       5.06746227      -0.00142347       0.00700584      -0.00152078
Mg       4.74455403      10.08698646       7.62465734      -0.00087464       0.00299751       0.00369489
Mg       7.94608600       8.25882162       5.05151877       0.00243111      -0.00101647       0.00141685
Mg       7.93325403      10.08698646       7.60871384      -0.00061972       0.00308706      -0.00096065
Mg      -0.05132800      -0.05132800      10.26560005       0.00125560      -0.00108743      -0.00028683
Mg      -0.06415997       1.77683684      12.82279496      -0.00305891       0.00231534       0.00037845
Mg       3.13737200      -0.05132800      10.24965655       0.00005407      -0.00107698      -0.00202029
Mg       3.12454003       1.77683684      12.80685146       0.00345773       0.00303958       0.00117649
Mg       6.32607200      -0.05132800      10.23371305       0.00379524      -0.00915956       0.00081604
Mg       6.31324003       1.77683684      12.79090796      -0.00341584      -0.00085183      -0.00102431
Mg       9.51477200      -0.05132800      10.21776955      -0.00142342       0.00700390      -0.00151033
Mg       9.50194003       1.77683684      12.77496446      -0.00087467       0.00299701       0.00371269
Mg      12.70347200      -0.05132800      10.20182605       0.00242879      -0.00101569       0.00142580
Mg      12.69064003       1.77683684      12.75902096      -0.00062110       0.00308751      -0.00094053
Mg      -1.64567800       2.71016720      10.25976433       0.00125281      -0.00108631      -0.00028734
Mg      -1.65850997       4.53833205      12.81695924      -0.00306228       0.00231591       0.00037806
Mg       1.54302200       2.71016720      10.24382083       0.00005307      -0.00107501      -0.00202263
Mg       1.53019003       4.53833205      12.80101574       0.00345607       0.00304098       0.00117625
Mg       4.73172200       2.71016720      10.22787733       0.00379641      -0.00916288       0.00081372
Mg       4.71889003       4.53833205      12.78507224      -0.00341585      -0.00085117      -0.00102602
Mg       7.92042200       2.71016720      10.21193383      -0.00142079       0.00700193      -0.00150971
Mg       7.90759003       4.53833205      12.76912874      -0.00087159       0.00299406       0.00371295
Mg      11.10912200       2.71016720      10.19599033       0.00242947      -0.00101606       0.00142785
Mg      11.09629003       4.53833205      12.75318524      -0.00061889       0.00308629      -0.00094255
Mg      -3.24002800       5.47166241      10.25392860       0.00125498      -0.00108725      -0.00028783
Mg      -3.25285997       7.29982725      12.81112351      -0.00306184       0.00231515       0.00037997
Mg      -0.05132800       5.47166241      10.23798510       0.00004842      -0.00107318      -0.00202248
Mg      -0.06415997       7.29982725      12.79518001       0.00345560       0.00304142       0.00117542
Mg       3.13737200       5.47166241      10.22204160       0.00379193      -0.00915921       0.00081202
Mg       3.12454003       7.29982725      12.77923651      -0.00341991      -0.00084740      -0.00102433
Mg       6.32607200       5.47166241      10.20609810      -0.00142369       0.00700354      -0.00151188
Mg       6.31324003       7.29982725      12.76329301      -0.00087292       0.00299616       0.00371142
Mg       9.51477200       5.47166241      10.19015460       0.00243390      -0.00101741       0.00142731
Mg       9.50194003       7.29982725      12.74734951      -0.00061816       0.00308642      -0.00094165
Mg      -4.83437800       8.23315761      10.24809288       0.00125617      -0.00108836      -0.00028954
Mg      -4.84720997      10.06132246      12.80528779      -0.00305901       0.00231429       0.00038057
Mg      -1.64567800       8.23315761      10.23214938       0.00005162      -0.00107600      -0.00202227
Mg      -1.65850997      10.06132246      12.78934429       0.00345799       0.00303822       0.00117720
Mg       1.54302200       8.23315761      10.21620588       0.00379376      -0.00915913       0.00081339
Mg       1.53019003      10.06132246      12.77340079      -0.00341728      -0.00084911      -0.00102572
Mg       4.73172200       8.23315761      10.20026238      -0.00142454       0.00700636      -0.00151071
Mg       4.71889003      10.06132246      12.75745729      -0.00087350       0.00299876       0.00371318
Mg       7.92042200       8.23315761      10.18431888       0.00243181      -0.00101505       0.00142825
Mg       7.90759003      10.06132246      12.74151379      -0.00062004       0.00308888      -0.00094099
120
Lattice="15.9435 0.0 -0.0797175 -6.3774 11.04598082 -0.0233429 -0.076992 -0.076992 15.3984" Properties=species:S:1:pos:R:3:forces:R:3 energy=-180.47582453 stress="-0.0013370092236961945 0.00045516393794079265 -0.0014562680416813135 0.00045516393794079265 0.0018814945748582977 -0.0014992450949637525 -0.0014562680416813135 -0.0014992450949637525 -0.0010448658083427203" free_energy=-180.47553321 pbc="T T T"
Mg       0.00443761       0.00332037       0.00076604      -0.00341008      -0.02057326       0.00016510
Mg      -0.01255828       1.83339612       2.56213513      -0.00622990       0.00525614      -0.00916887
Mg       3.11279842      -0.06731546      15.38171085       0.00694058      -0.04835544      -0.01300511
Mg       3.17938128       1.82475360       2.53699115       0.00810398       0.01307238       0.02506678
Mg      -0.07260739      10.95694761      15.34181413      -0.02064860       0.03029359       0.00187835
Mg       6.37243926       1.83123022       2.52480885      -0.01985451      -0.02630903       0.00126730
Mg       9.55921347       0.00866995      -0.04376690       0.01769926      -0.01980159      -0.01420671
Mg       9.55496608       1.83286664       2.51481705      -0.01132155      -0.01075093      -0.00958588
Mg      12.75589756       0.00120524      -0.06124860      -0.00147289      -0.01365404      -0.00498004
Mg      12.73917183       1.82734082       2.49016794       0.00916634       0.00429741       0.02025406
Mg      14.34565699       2.76090547      -0.07784662       0.01548580      -0.00183930      -0.02201883
Mg      -1.61789354       4.59256632       2.55211236       0.02826676       0.00285007      -0.00277429
Mg       1.59915787       2.75790307      -0.02072856      -0.01162678       0.01480226       0.00404337
Mg       1.58896403       4.59508468       2.53186978      -0.02051834      -0.01108127      -0.00669335
Mg       4.78963583       2.76806883      -0.03503697      -0.00203693      -0.02990376      -0.00658665
Mg       4.76958681       4.58636788       2.51677844       0.00010576       0.00888473       0.00655464
Mg       7.96764349       2.75540246      -0.05200110       0.01275431       0.01609359      -0.00973173
Mg       7.95890865       4.58891901       2.49250081      -0.00623936       0.01085945       0.02828689
Mg      11.15884409       2.76394525      -0.06228929       0.00108850      -0.00969530      -0.01671173
Mg      11.14518213       4.58964028       2.48806032       0.00952905       0.01301003       0.00232844
Mg      -3.25593356       5.44849435      15.37741392      -0.02592667      -0.00942816       0.03154237
Mg      -3.20357688       7.35738448       2.54173382       0.00877268      -0.01535920       0.00768856
Mg      -0.07688738       5.44376797      15.36280554       0.00046645       0.00311113       0.03771896
Mg      -0.00706519       7.35346730       2.53872687      -0.03956414      -0.01726322      -0.03506883
Mg       3.10704782       5.44547798      15.34140330       0.01928507       0.00756470       0.04233512
Mg       3.17026610       7.35458423       2.51764994       0.02456168      -0.01100368      -0.02269275
Mg       6.37686145       5.51830736      -0.05558917      -0.00601182       0.03940881      -0.01739290
Mg       6.36301224       7.35526263       2.49716331      -0.00140262      -0.00344417       0.00519583
Mg       9.56730446       5.52310145      -0.07413122      -0.00222884      -0.01864279      -0.02253244
Mg       9.55401272       7.34597526       2.47233459      -0.00213552       0.01601453       0.04677042
Mg      11.15125645       8.27119521      -0.09474964       0.03945095       0.05237849      -0.01495849
Mg      -4.79513644      10.12274441       2.54051121      -0.00052014      -0.02830940      -0.00599663
Mg      -1.66848274       8.20708386      15.35840987      -0.01206974       0.00291026       0.01727309
Mg      -1.60622490      10.10654538       2.51766497       0.00396580       0.02690160       0.01821643
Mg       1.59259418       8.28328486      -0.04879413       0.00850429      -0.01496683      -0.00694543
Mg       1.57718541      10.10176893       2.50838893       0.00532005       0.03601630       0.00704043
Mg       4.69753655       8.20967894      15.32693295       0.02085338       0.00369342       0.02065406
Mg       4.76638508      10.12320376       2.49556141       0.00924707      -0.02841988      -0.01949676
Mg       7.97084846       8.28228267      -0.07303978      -0.01737313       0.00467309      -0.04119593
Mg       7.96736944      10.10866581       2.48197208      -0.02240070       0.01643875      -0.01828561
Mg      15.91312271      -0.02067697       5.05336979       0.01722514      -0.00550020       0.01604304
Mg      -0.03938497       1.80921584       7.68728593      -0.00006583      -0.02116177       0.01714726
Mg      -3.21612802      11.01380975       5.09852326      -0.00421147       0.02831266      -0.02184668
Mg       3.14802559       1.80299513       7.66511730      -0.00284385       0.00181909       0.01997934
Mg       6.35551903      -0.02255536       5.11084815      -0.00316464      -0.01825562      -0.03729861
Mg       6.32605155       1.80303806       7.65740756       0.03619212       0.00546556       0.00963843
Mg       9.53704618      -0.02474829       5.08009969       0.00872526      -0.00931153       0.01552143
Mg       9.52497527       1.80253637       7.64883419       0.00256847       0.00370544      -0.01573244
Mg       6.35309220      11.01700933       5.04067734      -0.00209552       0.01217675       0.02834042
Mg      12.72145916       1.81137338       7.62483238      -0.01208688      -0.03042646       0.00505533
Mg      14.31702737       2.73749237       5.05028372       0.00746973       0.00407106      -0.01157313
Mg      -1.62926672       4.56473865       7.68915639      -0.01384437       0.01119851      -0.01981255
Mg       1.56841297       2.74273583       5.10771803       0.00960708      -0.02086465      -0.00719686
Mg       1.56413958       4.55474570       7.66927982      -0.00417627       0.03491059      -0.02256835
Mg       4.76468472       2.72695094       5.10108497      -0.01729463       0.01935793      -0.01962839
Mg       4.74780975       4.56853041       7.66522555      -0.01311266      -0.00100636      -0.03185070
Mg       7.95050063       2.73381030       5.07616972      -0.02190322       0.01145003       0.01539717
Mg       7.93505875       4.56880110       7.63268377      -0.00709365      -0.02044993       0.01265051
Mg      11.12735406       2.73527253       5.06837052       0.02491719      -0.00545794      -0.00775117
Mg      11.12236014       4.56031330       7.62033931       0.00465158       0.02384658       0.00102876
Mg      12.72905317       5.49728916       5.04026756      -0.00215189       0.00912953       0.01007032
Mg      -3.22694653       7.33851796       7.67599004      -0.00311647      -0.04644066       0.00788173
Mg      -0.01930138       5.49719691       5.09926393      -0.01461961      -0.00351225       0.01736987
Mg      -0.04661603       7.32372415       7.66282014       0.02303243       0.01035740      -0.00553495
Mg       3.18233539       5.49189504       5.08156250      -0.04518703       0.01063089       0.03288551
Mg       3.14605045       7.32979216       7.65422518       0.00950946      -0.00878990      -0.02879174
Mg       6.34835557       5.50048303       5.07848843       0.01881177      -0.01337799      -0.02612408
Mg       6.34895873       7.32267967       7.62721796      -0.03527807       0.01651335       0.00806074
Mg       9.52831074       5.48855860       5.05842209       0.03002639       0.03288983      -0.01296711
Mg       9.52966349       7.32351640       7.61685617       0.00662094      -0.00199101      -0.01309420
Mg      -4.80433205       8.25704322       5.11571920      -0.02746003      -0.00270240      -0.01382173
Mg      -4.82088722      10.08504778       7.67503377      -0.01782810       0.01585734      -0.00502755
Mg      -1.62401714       8.27213688       5.10493671       0.01477354      -0.04295272      -0.02460599
Mg      -1.63571305      10.08738938       7.65402360       0.01551762       0.01167517       0.02539103
Mg       1.56395431       8.24854538       5.08037665       0.02616184       0.02084612       0.03205295
Mg       1.56177224      10.09464734       7.63738582      -0.02156177      -0.02137042       0.00069221
Mg       4.76067083       8.25494074       5.06551668      -0.01358165       0.02375079       0.01064788
Mg       4.74536399      10.08756443       7.62638648       0.00481421       0.00194381      -0.00859926
Mg       7.95143545       8.26929214       5.05706535       0.00463863      -0.03333150      -0.01544344
Mg       7.93669042      10.07958882       7.62389492      -0.01104789       0.03600277      -0.03668089
Mg       9.51132970      10.99437582      10.16350243       0.00506517       0.00148407      -0.00667800
Mg      -0.05807381       1.76766581      12.82546094      -0.01640933       0.03529997       0.00255300
Mg       3.13487766      -0.04410881      10.24734037       0.01721244      -0.01176294      -0.00629933
Mg       3.12704761       1.77119527      12.81471977       0.01463031       0.02240303      -0.02441215
Mg      -0.04161872      10.99318448      10.21013001      -0.03427566      -0.00080266      -0.00628609
Mg       6.32002287       1.77429954      12.78990021      -0.03466119      -0.00791010       0.00307558
Mg       9.50663154      -0.04778442      10.21668283       0.02370598      -0.01275371       0.01035808
Mg       9.50022148       1.78086850      12.77146549       0.00725131      -0.00928739       0.01636042
Mg      12.69968744      -0.04821363      10.20018201       0.00740440      -0.00731569       0.00683753
Mg      12.68978076       1.77739892      12.75916503       0.00401959      -0.00633632       0.01372414
Mg      14.29107716       2.71564415      10.18875283       0.01901814      -0.01979017      -0.01274798
Mg      -1.65986454       4.54040864      12.81928545       0.01428482      -0.02648942      -0.01441468
Mg       1.54184588       2.71119900      10.24676111       0.00897496      -0.00486054       0.00099159
Mg       1.52673663       4.53795419      12.80812089       0.00788655      -0.00793173      -0.03443546
Mg       4.73376742       2.71541706      10.22288635      -0.01006788      -0.01890011       0.02800744
Mg       4.71841025       4.54299128      12.79087596      -0.01191526      -0.02022003      -0.02663926
Mg       7.91984628       2.70586494      10.21095768      -0.00803815       0.02601790      -0.01114563
Mg       7.89319507       4.53229939      12.77064500       0.04222276       0.02793193      -0.00050994
Mg      11.10847870       2.71030601      10.19810032       0.00230010      -0.00549671      -0.00562200
Mg      11.10301558       4.52792821      12.75876248      -0.02888423       0.03592336      -0.00867093
Mg      12.70193192       5.47069022      10.17822966       0.00488482       0.00186180      -0.02015398
Mg      -3.23969419       7.29410320      12.80779891      -0.05623552       0.01679134       0.00330708
Mg      -0.04429130       5.46401786      10.22366403      -0.01921745       0.01594761       0.04001434
Mg      -0.07226605       7.28930401      12.79241459       0.04127887       0.01771461      -0.01031677
Mg       3.13173355       5.48507464      10.22088071       0.01491140      -0.03644680       0.01954713
Mg       3.13221072       7.30117538      12.77875536      -0.04716779       0.00486870      -0.00368381
Mg       6.32617928       5.47339718      10.20540385      -0.00434971      -0.01008373      -0.00140493
Mg       6.30106624       7.30086531      12.74535287       0.05475601       0.00537286       0.06556533
Mg       9.51631367       5.46660465      10.18933763      -0.00475622       0.00150818       0.01874459
Mg       9.50891833       7.30572601      12.75113284      -0.02559888      -0.02673393      -0.01719126
Mg      11.10632844       8.22798639      10.16398407       0.00743385       0.01232727       0.01433036
Mg      -4.84234914      10.06168765      12.79213672       0.00423538      -0.01382113       0.03955728
Mg      -1.64988345       8.23134521      10.23182209       0.00721909      -0.00028483      -0.01454825
Mg      -1.65723491      10.04768902      12.77821555       0.00303872       0.04264516       0.01995600
Mg       1.53866285       8.23595109      10.21476694       0.00453549      -0.00693719       0.01153833
Mg       1.52337144      10.05826877      12.77751975       0.02235850      -0.00614482      -0.00842191
Mg       4.73229017       8.23656137      10.20761244      -0.01200556       0.00412029      -0.04452299
Mg       4.71751281      10.06079064      12.75374631      -0.00378195       0.02398645       0.01765786
Mg       7.91553323       8.22303942      10.17954951       0.01993067       0.02743907       0.02735242
Mg       7.91434667      10.06840033      12.74269290      -0.02230451      -0.02859858      -0.00261161
120
Lattice="15.9435 0.0 -0.0797175 -6.3774 11.04598082 -0.0233429 -0.076992 -0.076992 15.3984" Properties=species:S:1:pos:R:3:forces:R:3 energy=-180.42406235 stress="-0.0013654105868226136 0.0004384299901026243 -0.0014642509505778452 0.0004384299901026243 0.0018277905956072234 -0.0014955647703831481 -0.0014642509505778452 -0.0014955647703831481 -0.0010921931061047725" free_energy=-180.4237389 pbc="T T T"
Mg       0.00887385       0.00663235       0.00153229      -0.00888416      -0.03621847       0.00463973
Mg      -0.01228710       1.83862930       2.56707180      -0.01028999       0.00688602      -0.01606095
Mg       3.11389174      -0.05765823      15.38096020       0.01377632      -0.09329492      -0.02357117
Mg       3.18289792       1.82134740       2.53274070       0.01378816       0.02097626       0.04593392
Mg      -0.06823082      10.94491810      15.34045891      -0.05374817       0.06645880       0.00312576
Mg       6.38030275       1.83428500       2.52431020      -0.03650986      -0.05156546       0.00217470
Mg       9.55233408       0.01733176      -0.03970899       0.04400442      -0.04492706      -0.02271065
Mg       9.55665952       1.83756404       2.52026588      -0.02142893      -0.02134973      -0.02185691
Mg      12.75699461       0.00240476      -0.05872517      -0.00691198      -0.02444073      -0.01201615
Mg      12.73637931       1.82651830       2.48692280       0.01898256       0.00776531       0.03886278
Mg      14.34217018       2.76031478      -0.07014867       0.02882886       0.00066523      -0.04263436
Mg      -1.62859389       4.59547359       2.55286439       0.05811199       0.00287572      -0.00785703
Mg       1.60396098       2.75431667      -0.01967637      -0.02326414       0.03003377       0.00904194
Mg       1.59640203       4.60050469       2.52832131      -0.04228224      -0.02216528      -0.01169510
Mg       4.79622088       2.77463031      -0.03235376      -0.00792565      -0.05310920      -0.01629198
Mg       4.76895568       4.58307913       2.51408728       0.00674000       0.01943015       0.01056298
Mg       7.96354211       2.74931580      -0.05033972       0.02402726       0.02760326      -0.02050218
Mg       7.95889680       4.58818212       2.48148401      -0.01288809       0.01720098       0.06367514
Mg      11.15723865       2.76639124      -0.05497531       0.00131841      -0.01450304      -0.03401173
Mg      11.14275006       4.58962548       2.48853633       0.01609210       0.02264408       0.00668157
Mg      -3.24618548       5.45098624      15.36811198      -0.05066992      -0.01294964       0.06090765
Mg      -3.20561840       7.36360750       2.53794711       0.01907102      -0.02778704       0.01160787
Mg      -0.07678274       5.44153867      15.35484112       0.00054184       0.00479150       0.07546518
Mg      -0.00131413       7.35577223       2.54785989      -0.07361020      -0.03436251      -0.06827683
Mg       3.10239537       5.44496022      15.32798194       0.02877325       0.01791718       0.08721786
Mg       3.16467391       7.35800862       2.52165431       0.05338561      -0.01977865      -0.04239371
Mg       6.37632044       5.51363970      -0.05168323      -0.00883562       0.06989091      -0.02967474
Mg       6.36145589       7.35936846       2.49663582      -0.00463408      -0.00528775       0.00854900
Mg       9.56850817       5.52320479      -0.07282572      -0.00712731      -0.03576285      -0.04570994
Mg       9.55475661       7.34080136       2.46293816      -0.00656440       0.02866249       0.09713838
Mg      11.14207859       8.25792548      -0.09228049       0.07558358       0.09858545      -0.03160055
Mg      -4.79439118      10.13282701       2.54133227       0.00083817      -0.05435309      -0.00739724
Mg      -1.66562839       8.20667507      15.35187736      -0.02467777       0.00047362       0.03862150
Mg      -1.60526634      10.10045087       2.51159304       0.00629763       0.05223544       0.03476871