120
Lattice="15.9435 0.11957625 0.0 -6.29455514 10.99815032 0.0 0.0 0.0 15.3984" Properties=species:S:1:pos:R:3:forces:R:3 energy=-180.49073844 stress="-0.0014389560364754513 0.002287305945189835 -1.1240957935715747e-08 0.002287305945189835 0.0024017616972082587 2.7674851464166366e-08 -1.1240957935715747e-08 2.7674851464166366e-08 -0.0016156320760113791" free_energy=-180.48108017 pbc="T T T"
Mg       0.00000000       0.00000000       0.00000000      -0.01262280      -0.00086122      -0.00000112
Mg       0.01380751       1.84099684       2.56640005       0.01019278       0.00725245       0.00000603
Mg       3.18870000       0.02391525       0.00000000      -0.01444983      -0.00097965       0.00000030
Mg       3.20250751       1.86491209       2.56640005       0.01634852       0.00366083       0.00000656
Mg       6.37740000       0.04783050       0.00000000      -0.00989703      -0.00647915       0.00000030
Mg       6.39120751       1.88882734       2.56640005       0.00740078       0.00125922       0.00000755
Mg       9.56610000       0.07174575       0.00000000      -0.01564260       0.00474639      -0.00000054
Mg       9.57990751       1.91274259       2.56640005       0.01378317       0.00137166       0.00000368
Mg      12.75480000       0.09566100       0.00000000      -0.01098570      -0.00060758      -0.00000051
Mg      12.76860751       1.93665784       2.56640005       0.01239715       0.00121457       0.00000743
Mg      -1.57363878       2.74953758       0.00000000      -0.01262564      -0.00086382       0.00000022
Mg      -1.55983128       4.59053442       2.56640005       0.01019382       0.00725469       0.00000574
Mg       1.61506122       2.77345283       0.00000000      -0.01444959      -0.00097751      -0.00000146
Mg       1.62886872       4.61444967       2.56640005       0.01634895       0.00365965       0.00000743
Mg       4.80376122       2.79736808       0.00000000      -0.00989545      -0.00648220       0.00000106
Mg       4.81756872       4.63836492       2.56640005       0.00740270       0.00125702       0.00000837
Mg       7.99246122       2.82128333       0.00000000      -0.01564064       0.00475311      -0.00000378
Mg       8.00626872       4.66228017       2.56640005       0.01378176       0.00137316       0.00000502
Mg      11.18116122       2.84519858       0.00000000      -0.01098647      -0.00060362      -0.00000171
Mg      11.19496872       4.68619542       2.56640005       0.01239699       0.00121543       0.00000621
Mg      -3.14727757       5.49907516       0.00000000      -0.01262276      -0.00086033      -0.00000241
Mg      -3.13347006       7.34007200       2.56640005       0.01019359       0.00725222       0.00000456
Mg       0.04142243       5.52299041       0.00000000      -0.01445379      -0.00097856       0.00000216
Mg       0.05522994       7.36398725       2.56640005       0.01634802       0.00366109       0.00000822
Mg       3.23012243       5.54690566       0.00000000      -0.00989352      -0.00648123       0.00000157
Mg       3.24392994       7.38790250       2.56640005       0.00740192       0.00125663       0.00000755
Mg       6.41882243       5.57082091       0.00000000      -0.01564364       0.00474970       0.00000182
Mg       6.43262994       7.41181775       2.56640005       0.01378431       0.00136956       0.00000764
Mg       9.60752243       5.59473616       0.00000000      -0.01098670      -0.00060322       0.00000096
Mg       9.62132994       7.43573300       2.56640005       0.01239645       0.00121411       0.00000526
Mg      -4.72091635       8.24861274       0.00000000      -0.01262697      -0.00086051       0.00000039
Mg      -4.70710885      10.08960958       2.56640005       0.01019501       0.00725309       0.00000907
Mg      -1.53221635       8.27252799       0.00000000      -0.01445247      -0.00097601       0.00000339
Mg      -1.51840885      10.11352483       2.56640005       0.01634762       0.00365950       0.00000846
Mg       1.65648365       8.29644324       0.00000000      -0.00990017      -0.00648278       0.00000225
Mg       1.67029115      10.13744008       2.56640005       0.00740259       0.00125862       0.00000576
Mg       4.84518365       8.32035849       0.00000000      -0.01564403       0.00474673      -0.00000007
Mg       4.85899115      10.16135533       2.56640005       0.01378551       0.00137097       0.00000543
Mg       8.03388365       8.34427374       0.00000000      -0.01098752      -0.00060231       0.00000202
Mg       8.04769115      10.18527058       2.56640005       0.01239594       0.00121235       0.00000601
Mg       0.00000000       0.00000000       5.13279995      -0.01262023      -0.00086011       0.00000804
Mg       0.01380751       1.84099684       7.69920000       0.01019614       0.00724995       0.00000036
Mg       3.18870000       0.02391525       5.13279995      -0.01444921      -0.00097728       0.00000829
Mg       3.20250751       1.86491209       7.69920000       0.01634144       0.00365801      -0.00000194
Mg       6.37740000       0.04783050       5.13279995      -0.00989128      -0.00648082       0.00000568
Mg       6.39120751       1.88882734       7.69920000       0.00739525       0.00125880       0.00000098
Mg       9.56610000       0.07174575       5.13279995      -0.01563484       0.00475152       0.00000591
Mg       9.57990751       1.91274259       7.69920000       0.01378371       0.00137430      -0.00000092
Mg      12.75480000       0.09566100       5.13279995      -0.01097963      -0.00060127       0.00000530
Mg      12.76860751       1.93665784       7.69920000       0.01239898       0.00121603      -0.00000121
Mg      -1.57363878       2.74953758       5.13279995      -0.01261989      -0.00085813       0.00000960
Mg      -1.55983128       4.59053442       7.69920000       0.01019578       0.00725206      -0.00000060
Mg       1.61506122       2.77345283       5.13279995      -0.01444958      -0.00097798       0.00000518
Mg       1.62886872       4.61444967       7.69920000       0.01634696       0.00365585      -0.00000244
Mg       4.80376122       2.79736808       5.13279995      -0.00989034      -0.00648391       0.00000408
Mg       4.81756872       4.63836492       7.69920000       0.00739671       0.00125479      -0.00000173
Mg       7.99246122       2.82128333       5.13279995      -0.01563645       0.00474958       0.00000237
Mg       8.00626872       4.66228017       7.69920000       0.01378174       0.00137677      -0.00000102
Mg      11.18116122       2.84519858       5.13279995      -0.01097693      -0.00060125       0.00000458
Mg      11.19496872       4.68619542       7.69920000       0.01239451       0.00121708      -0.00000062
Mg      -3.14727757       5.49907516       5.13279995      -0.01262013      -0.00085462       0.00000869
Mg      -3.13347006       7.34007200       7.69920000       0.01019585       0.00725238      -0.00000260
Mg       0.04142243       5.52299041       5.13279995      -0.01444949      -0.00097777       0.00000694
Mg       0.05522994       7.36398725       7.69920000       0.01634669       0.00365863      -0.00000011
Mg       3.23012243       5.54690566       5.13279995      -0.00989252      -0.00648412       0.00000448
Mg       3.24392994       7.38790250       7.69920000       0.00739967       0.00125578       0.00000027
Mg       6.41882243       5.57082091       5.13279995      -0.01563354       0.00474923       0.00000362
Mg       6.43262994       7.41181775       7.69920000       0.01378419       0.00137281      -0.00000155
Mg       9.60752243       5.59473616       5.13279995      -0.01097825      -0.00059966       0.00000287
Mg       9.62132994       7.43573300       7.69920000       0.01239751       0.00121721      -0.00000083
Mg      -4.72091635       8.24861274       5.13279995      -0.01261728      -0.00085731       0.00000786
Mg      -4.70710885      10.08960958       7.69920000       0.01019550       0.00725229      -0.00000141
Mg      -1.53221635       8.27252799       5.13279995      -0.01444904      -0.00097503       0.00000813
Mg      -1.51840885      10.11352483       7.69920000       0.01634288       0.00366007      -0.00000067
Mg       1.65648365       8.29644324       5.13279995      -0.00989354      -0.00648023       0.00000553
Mg       1.67029115      10.13744008       7.69920000       0.00739576       0.00125765      -0.00000302
Mg       4.84518365       8.32035849       5.13279995      -0.01563641       0.00475119       0.00000273
Mg       4.85899115      10.16135533       7.69920000       0.01378496       0.00137160      -0.00000102
Mg       8.03388365       8.34427374       5.13279995      -0.01097658      -0.00060013       0.00000477
Mg       8.04769115      10.18527058       7.69920000       0.01239739       0.00121412       0.00000079
Mg       0.00000000       0.00000000      10.26560005      -0.01261826      -0.00085691      -0.00000720
Mg       0.01380751       1.84099684      12.83199995       0.01019404       0.00725195      -0.00000507
Mg       3.18870000       0.02391525      10.26560005      -0.01444831      -0.00097800      -0.00000641
Mg       3.20250751       1.86491209      12.83199995       0.01634646       0.00366148      -0.00000588
Mg       6.37740000       0.04783050      10.26560005      -0.00989444      -0.00647949      -0.00000450
Mg       6.39120751       1.88882734      12.83199995       0.00740203       0.00126030      -0.00000721
Mg       9.56610000       0.07174575      10.26560005      -0.01563741       0.00475091      -0.00000320
Mg       9.57990751       1.91274259      12.83199995       0.01378467       0.00137331      -0.00000493
Mg      12.75480000       0.09566100      10.26560005      -0.01097692      -0.00060035      -0.00000689
Mg      12.76860751       1.93665784      12.83199995       0.01239840       0.00121450      -0.00000496
Mg      -1.57363878       2.74953758      10.26560005      -0.01262201      -0.00086045      -0.00000905
Mg      -1.55983128       4.59053442      12.83199995       0.01019884       0.00725376      -0.00000491
Mg       1.61506122       2.77345283      10.26560005      -0.01444928      -0.00097805      -0.00001142
Mg       1.62886872       4.61444967      12.83199995       0.01635037       0.00366052      -0.00000395
Mg       4.80376122       2.79736808      10.26560005      -0.00989046      -0.00648115      -0.00000315
Mg       4.81756872       4.63836492      12.83199995       0.00740344       0.00126038      -0.00000634
Mg       7.99246122       2.82128333      10.26560005      -0.01563454       0.00475057      -0.00000519
Mg       8.00626872       4.66228017      12.83199995       0.01378316       0.00137437      -0.00000535
Mg      11.18116122       2.84519858      10.26560005      -0.01097952      -0.00060178      -0.00000618
Mg      11.19496872       4.68619542      12.83199995       0.01239433       0.00121281      -0.00000304
Mg      -3.14727757       5.49907516      10.26560005      -0.01262386      -0.00085874      -0.00000727
Mg      -3.13347006       7.34007200      12.83199995       0.01019586       0.00725420      -0.00000656
Mg       0.04142243       5.52299041      10.26560005      -0.01445118      -0.00097759      -0.00000900
Mg       0.05522994       7.36398725      12.83199995       0.01635012       0.00366244      -0.00000383
Mg       3.23012243       5.54690566      10.26560005      -0.00989309      -0.00648248      -0.00000204
Mg       3.24392994       7.38790250      12.83199995       0.00740141       0.00126237      -0.00000376
Mg       6.41882243       5.57082091      10.26560005      -0.01563540       0.00475152      -0.00000254
Mg       6.43262994       7.41181775      12.83199995       0.01378477       0.00137328      -0.00000792
Mg       9.60752243       5.59473616      10.26560005      -0.01098015      -0.00060063      -0.00000552
Mg       9.62132994       7.43573300      12.83199995       0.01239534       0.00121551      -0.00000378
Mg      -4.72091635       8.24861274      10.26560005      -0.01262192      -0.00085676      -0.00001185
Mg      -4.70710885      10.08960958      12.83199995       0.01019615       0.00725265      -0.00000667
Mg      -1.53221635       8.27252799      10.26560005      -0.01444975      -0.00097546      -0.00000993
Mg      -1.51840885      10.11352483      12.83199995       0.01634834       0.00366400      -0.00000602
Mg       1.65648365       8.29644324      10.26560005      -0.00989146      -0.00647819      -0.00000618
Mg       1.67029115      10.13744008      12.83199995       0.00740352       0.00126077      -0.00000348
Mg       4.84518365       8.32035849      10.26560005      -0.01563521       0.00475148      -0.00000387
Mg       4.85899115      10.16135533      12.83199995       0.01378394       0.00137016      -0.00000354
Mg       8.03388365       8.34427374      10.26560005      -0.01097867      -0.00059981      -0.00000463
Mg       8.04769115      10.18527058      12.83199995       0.01239560       0.00121489      -0.00000481
120
Lattice="15.9435 0.11957625 0.0 -6.29455514 10.99815032 0.0 0.0 0.0 15.3984" Properties=species:S:1:pos:R:3:forces:R:3 energy=-180.47539006 stress="-0.0014302391510717517 0.0023002672627689363 3.6125043424425934e-06 0.0023002672627689363 0.00237284372437149 -3.5189690866821067e-06 3.6125043424425934e-06 -3.5189690866821067e-06 -0.0015741246484677204" free_energy=-180.46574313 pbc="T T T"
Mg       9.64213158      11.10867306      15.39814962       0.00170808       0.03713332      -0.01120297
Mg       0.01760450       1.83619364       2.56911479       0.00845185       0.00884261      -0.01759337
Mg       3.18800358       0.03764891      15.39325709      -0.00947063      -0.04487235       0.01473161
Mg       3.20664010       1.86201386       2.56492042       0.00893980       0.00897243       0.00399456
Mg       6.38437386       0.04805456       0.00514368      -0.02835063      -0.01971906      -0.01021626
Mg       6.39235607       1.88247935       2.56411077       0.00107790       0.01470666       0.02179273
Mg       3.27143746      11.06406563      15.39425552      -0.00459784       0.01297449      -0.00580160
Mg       9.57614537       1.90469809       2.56417313       0.02007265       0.01388126      -0.00763825
Mg      12.75174554       0.09963740       0.00414510      -0.00749379      -0.01593973      -0.01085697
Mg      12.77319595       1.93024320       2.57202216       0.00149976       0.01731932      -0.01418532
Mg      -1.57191416       2.75788954      15.39453423      -0.00379670      -0.03333970       0.01464258
Mg      -1.55573164       4.58805467       2.56254783       0.01590863       0.01332498       0.00538134
Mg       1.62465920       2.77899205       0.00241770      -0.04123959      -0.01263499      -0.01328165
Mg       1.63171060       4.61711657       2.56228976      -0.00548294      -0.00324375       0.00840253
Mg       4.80627210       2.78873574       0.00321134      -0.01406210       0.03683167       0.00440852
Mg       4.81645342       4.64086142       2.57135957       0.01580909      -0.02567883      -0.01583377
Mg       7.98599589       2.81801932       0.00064381       0.00326615       0.01492778       0.00562657
Mg       8.00267300       4.65610359       2.56249517       0.02100998       0.01561614       0.00763684
Mg      11.18315513       2.84391902       0.00539699      -0.02254456      -0.00436620      -0.00304041
Mg      11.18982894       4.68725202       2.56506101       0.01935787      -0.01814535       0.00049641
Mg      12.79860708       5.61294051       0.00452513      -0.02232728       0.01257883      -0.00069342
Mg      -3.13237079       7.33519919       2.56674575       0.01265044       0.00597938      -0.00661153
Mg       0.04277764       5.52989741      15.39763439      -0.00982794      -0.01437914       0.01480035
Mg       0.05577695       7.37801112       2.57309281       0.00874007      -0.03839653      -0.01198179
Mg       3.22803775       5.54779994       0.00340659      -0.00978509      -0.00818863      -0.01614083
Mg       3.23701806       7.37938384       2.56957289       0.01554833       0.01924640      -0.01559853
Mg       6.41348492       5.58776831       0.00760050       0.01127572      -0.05585998      -0.01936690
Mg       6.42053299       7.40604993       2.56433066       0.05219249       0.02759461       0.00728242
Mg       9.61042839       5.59396799      15.39048507      -0.01752119      -0.00201958       0.02470493
Mg       9.62430391       7.43133827       2.56757526      -0.00695666      -0.00257430      -0.00644342
Mg      -4.71440798       8.25169439       0.00131887      -0.01575646      -0.01787494      -0.00747336
Mg      -4.71069681      10.07652960       2.55292968       0.03466884       0.03575510       0.03842948
Mg      -1.53460977       8.26293018       0.00468296      -0.00608355       0.03899446       0.00420659
Mg      -1.51482577      10.12008161       2.56936193      -0.01127695      -0.01095824      -0.01188620
Mg       1.66198320       8.29878557      15.39816240      -0.02145616      -0.01063310       0.00110089
Mg       1.66774079      10.13472014       2.56182919       0.01912787      -0.00052056       0.00646708
Mg       4.84948555       8.31346112       0.00012981      -0.02245598       0.03409765       0.00521733
Mg       4.84901601      10.15800767       2.56618309       0.03735283      -0.00018433      -0.00840137
Mg       8.04372402       8.34040468      15.39658053      -0.03417618       0.00648587       0.00662413
Mg       8.05279763      10.18151645       2.56080535      -0.01523602      -0.00526719       0.01590902
Mg      15.94101809       0.12010792       5.13285184      -0.01521943      -0.00735430      -0.00211224
Mg       0.01242641       1.83483731       7.70539262       0.02070450       0.02767886      -0.01628267
Mg       3.18641812       0.03561770       5.13476417      -0.01137335      -0.03473766      -0.01712816
Mg       3.20521125       1.86788358       7.69826886       0.00716290      -0.00518356       0.00128910
Mg       0.08949844      11.03769523       5.13410789      -0.03864999       0.02174511       0.00202129
Mg       6.39717771       1.88442912       7.69887417       0.00347904       0.01074552      -0.00057339
Mg       3.26223717      11.06685826       5.12716013       0.00779825       0.01319469       0.02127131
Mg       9.58094929       1.92127908       7.70418616       0.01524247      -0.01467526      -0.01609935
Mg       6.45483506      11.08525378       5.13042013      -0.00015767       0.01689852       0.00775521
Mg      12.77815616       1.93151693       7.70146649      -0.01165606       0.03223078      -0.01961494
Mg      -1.57747068       2.75806281       5.12946727      -0.00368846      -0.03247179       0.01835304
Mg      -1.55684439       4.60395319       7.69776194      -0.01252938      -0.03733429       0.01119604
Mg       1.61553808       2.77259277       5.12391230      -0.02378052       0.00430739       0.02551883
Mg       1.62121489       4.61321052       7.69708426       0.04080239       0.00389079       0.00222834
Mg       4.80154589       2.79810763       5.13757176       0.01090813      -0.01405887      -0.01587985
Mg       4.81947410       4.63831128       7.69330087       0.00054837       0.00912037       0.00375942
Mg       7.99366365       2.82183711       5.13002516      -0.02907493       0.01795378       0.00891125
Mg       8.01424688       4.66465279       7.70276997      -0.01433073       0.00697254      -0.01638400
Mg      11.17107111       2.84027973       5.12674376       0.00862259       0.00255842       0.01546443
Mg      11.19099204       4.68996299       7.69126613       0.04413537      -0.00296059       0.02535602
Mg      12.79327558       5.61012493       5.12233966      -0.00596641       0.01699304       0.02433280
Mg      -3.13453147       7.35167647       7.69763429       0.00591496      -0.04407420       0.00558611
Mg       0.04130880       5.52334058       5.14143460      -0.01212443       0.00196471      -0.04453246
Mg       0.05446721       7.35963783       7.69103561       0.02387426       0.02557323       0.02043693
Mg       3.22819761       5.54244536       5.12506533      -0.02041896       0.01334821       0.03373480
Mg       3.23971205       7.39514070       7.70019581       0.02080516      -0.02558029      -0.02130204
Mg       6.41199508       5.58485972       5.12805940       0.01535595      -0.03785287       0.01779800
Mg       6.42641316       7.42114632       7.69714154       0.02598705      -0.01826698      -0.00836853
Mg       9.60867990       5.60272136       5.13608535      -0.02564719      -0.01816657      -0.01146597
Mg       9.62006607       7.44016210       7.70737948       0.01831602      -0.00653582      -0.01907831
Mg      -4.71189810       8.24366446       5.13050466      -0.03772210       0.02017320       0.00046071
Mg      -4.70368186      10.08431981       7.69538659      -0.00745755       0.01909761       0.00145535
Mg      -1.54383770       8.27150131       5.12594104       0.01255184       0.00236428       0.01432195
Mg      -1.51772207      10.10571086       7.69770050       0.03125571       0.02876987       0.00012012
Mg       1.65727224       8.30072956       5.12983452      -0.01748056      -0.02373501       0.01014444
Mg       1.67997949      10.13493365       7.69891744      -0.01825994       0.00906949       0.00692471
Mg       4.84034891       8.32045069       5.12639468      -0.01553615       0.00926422       0.02033615
Mg       4.85776190      10.16705844       7.70410547       0.01212616      -0.00072497      -0.02831540
Mg       8.03553377       8.34461460       5.13245364      -0.01065550       0.00618333      -0.00227769
Mg       8.04512665      10.18555487       7.70726322       0.02249450      -0.00630981      -0.02652460
Mg      15.93541995       0.12252463      10.26390561       0.00300742      -0.00988300       0.01534323
Mg       0.01334014       1.84526999      12.83497892       0.02321465      -0.01558604      -0.00094136
Mg      -3.11675128      11.01689437      10.25720284       0.01924198       0.01244858       0.01697622
Mg       3.21104174       1.86137409      12.82800237      -0.00742581       0.01787855      -0.00321462
Mg       6.38103952       0.06178953      10.26486986      -0.02508943      -0.04289464       0.00859835
Mg       6.38781788       1.89633839      12.84321291       0.01462512      -0.01605136      -0.02704009
Mg       9.57253919       0.07285981      10.25812213      -0.03401974      -0.00253627       0.02727895
Mg       9.57716789       1.91592520      12.82916033       0.02833661      -0.02238670       0.01184062
Mg      12.74933667       0.09640977      10.26242552       0.00492291      -0.00806653       0.01720338
Mg      12.76269823       1.94086764      12.82969281       0.02865245      -0.02397706       0.01484482
Mg      14.36792949       2.87132576      10.27425549      -0.00438219      -0.00133635      -0.02241144
Mg      -1.56362157       4.59309701      12.83333622       0.01521517       0.00069919       0.00814557
Mg       1.62320473       2.78242806      10.26482366      -0.02840769      -0.02974091       0.00311341
Mg       1.61793837       4.61628097      12.82829617       0.05675867       0.00290558       0.01319318
Mg       4.80270900       2.79977868      10.26336174      -0.00364565      -0.00314974       0.00948163
Mg       4.81864331       4.64451950      12.84455627       0.00095395      -0.00559349      -0.02826989
Mg       7.99608758       2.82179365      10.27589434      -0.02682323       0.00579066      -0.02346724
Mg       8.01225783       4.65000841      12.83759419      -0.01555629       0.04916184      -0.00307479
Mg      11.18587435       2.84199212      10.26301358      -0.01776261       0.02305900      -0.00008743
Mg      11.19751966       4.68012293      12.84043966       0.00569079       0.01834840      -0.02525358
Mg      -3.14081178       5.50068326      10.27427443      -0.04015541      -0.00470209      -0.02669440
Mg      -3.13493291       7.33875569      12.84281794       0.02043177       0.00249625      -0.02100089
Mg       0.04125378       5.51194356      10.27005789      -0.00881939       0.03537428      -0.01265028
Mg       0.05391572       7.35779619      12.84009704       0.02509528       0.02905793      -0.02414483
Mg       3.23578113       5.55692990      10.26404989      -0.02241201      -0.03281692       0.00828820
Mg       3.24932072       7.40365562      12.83313851      -0.01071359      -0.03383041      -0.00011044
Mg       6.41324686       5.56839009      10.25508895       0.00283897       0.00337464       0.03392746
Mg       6.42970443       7.41029408      12.83360231       0.03997839      -0.00914647      -0.01977339
Mg       9.60156559       5.59223014      10.27324828       0.01396493      -0.00095073      -0.00809174
Mg       9.62347320       7.43870095      12.83001325       0.00702677      -0.01063936       0.00853586
Mg      11.22271029       8.36646200      10.27381263      -0.00984468      -0.00185977      -0.01591058
Mg      -4.69885038      10.08781236      12.83066645      -0.01166483       0.02117619       0.00122638
Mg      -1.53147855       8.26787073      10.26051427      -0.00056737       0.01354097       0.02698707
Mg      -1.51524883      10.11052785      12.84097491       0.01568720       0.00206877      -0.02828276
Mg       1.66031676       8.29438972      10.26633779      -0.03865239       0.01035744       0.00617642
Mg       1.66514898      10.14401117      12.83409090       0.02226737      -0.00597899      -0.01769825
Mg       4.84576249       8.31570732      10.25916937      -0.00709263       0.01770430       0.01023576
Mg       4.86417626      10.15165807      12.82501770       0.00051299       0.03461633       0.01437792
Mg       8.03836725       8.34063545      10.26144479      -0.03068550       0.00800778       0.02132700
Mg       8.04765582      10.18473053      12.83316684       0.01035751       0.00655042      -0.00672126
120
Lattice="15.9435 0.11957625 0.0 -6.29455514 10.99815032 0.0 0.0 0.0 15.3984" Properties=species:S:1:pos:R:3:forces:R:3 energy=-180.42772789 stress="-0.0014573925431729782 0.0022982459562800282 6.316862865560047e-06 0.0022982459562800282 0.0023083066448400394 -7.591297889446772e-07 6.316862865560047e-06 -7.591297889446772e-07 -0.0016215288541052218" free_energy=-180.41812457 pbc="T T T"
Mg       9.63531892      11.09963414      15.39789493       0.02124211       0.07512385      -0.02306056
Mg       0.02140480       1.83139388       2.57182260       0.00793795       0.01151026      -0.03470660
Mg       3.18730332       0.05136464      15.38812003      -0.00486991      -0.08370912       0.03114878
Mg       3.21077631       1.85911907       2.56344248      -0.00164208       0.01476541       0.01123143
Mg       6.39133663       0.04827058       0.01028336      -0.04998736      -0.03003768      -0.02419330
Mg       6.39350503       1.87613711       2.56183027      -0.00556603       0.03532307       0.04629108
Mg       3.27132812      11.05824026      15.39010889       0.00800279       0.02542437      -0.01363953
Mg       9.57239120       1.89665896       2.56194345       0.02607510       0.02515797      -0.01734237
Mg      12.74868802       0.10360736       0.00828603      -0.00335747      -0.03047041      -0.02439296
Mg      12.77778509       1.92383519       2.57763888      -0.00696313       0.03347810      -0.02666209
Mg      -1.57019123       2.76622823      15.39067447       0.00272871      -0.06088167       0.03017018
Mg      -1.55162566       4.58558004       2.55869793       0.01746973       0.01937117       0.01197407
Mg       1.63424089       2.78452617       0.00483017      -0.06725647      -0.02051390      -0.02562587
Mg       1.63455010       4.61978201       2.55818285      -0.02645489      -0.01067471       0.01760906
Mg       4.80877728       2.78011784       0.00642437      -0.01666796       0.07226735       0.01112908
Mg       4.81534429       4.64334770       2.57631293       0.01972519      -0.05220892      -0.03469058
Mg       7.97953176       2.81476105       0.00128992       0.02572499       0.02965237       0.01321025
Mg       7.99908584       4.64993303       2.55859352       0.02709230       0.02967385       0.01465052
Mg      11.18514000       2.84263762       0.01079274      -0.03341782      -0.01050528      -0.00629377
Mg      11.18469688       4.68830128       2.56372242       0.02838572      -0.03473069      -0.00228388
Mg      12.80098291       5.60723440       0.00904995      -0.03053619       0.02529428      -0.00379337
Mg      -3.13126656       7.33032863       2.56708882       0.01321594       0.00833300      -0.01346516
Mg       0.04412884       5.53679852      15.39687479      -0.00911302      -0.03273216       0.03093815
Mg       0.05632751       7.39201955       2.57978080       0.00371988      -0.07658687      -0.02801311
Mg       3.22594913       5.54869077       0.00680686      -0.00535439      -0.00801189      -0.03286324
Mg       3.23011227       7.37087274       2.57273973       0.02871940       0.04963146      -0.02749926
Mg       6.40815190       5.60469332       0.01519314       0.03882220      -0.11663736      -0.04186352
Mg       6.40845672       7.40029298       2.56226420       0.08346815       0.05549303       0.01461876
Mg       9.61332743       5.59319878      15.38257984      -0.02658783      -0.00191970       0.04615962
Mg       9.62727510       7.42694252       2.56874800      -0.02535087      -0.00186141      -0.01443865
Mg      -4.70790566       8.25476870       0.00263497      -0.02669315      -0.03665319      -0.01483545
Mg      -4.71427103      10.06346363       2.53947456       0.05723234       0.06573475       0.07803947
Mg      -1.53700572       8.25334770       0.00936762       0.00334493       0.07772951       0.01017589
Mg      -1.51124697      10.12663383       2.57231904      -0.03694584      -0.02821933      -0.02482130