108
Lattice="10.911 0.0 0.0 0.0 10.911 0.0 0.0 0.0 10.911" Properties=species:S:1:pos:R:3:forces:R:3 energy=-405.32020608 stress="0.013047981363978221 8.750595794488329e-09 1.3281931419879573e-08 8.750595794488329e-09 0.013047975471993606 1.2782610689808914e-08 1.3281931419879573e-08 1.2782610689808914e-08 0.013048038629824453" free_energy=-405.33430229 pbc="T T T"
Cu       0.00000000       0.00000000       0.00000000      -0.00004323      -0.00001098      -0.00001513
Cu       1.81850364       1.81850364       0.00000000      -0.00842245      -0.00840156       0.00002163
Cu       0.00000000       1.81850364       1.81850364       0.00001586      -0.00841945      -0.00841660
Cu       1.81850364       0.00000000       1.81850364      -0.00839660       0.00000505      -0.00840278
Cu       3.63699636       0.00000000       0.00000000       0.00447052      -0.00001112       0.00001672
Cu       5.45550000       1.81850364       0.00000000       0.00001421      -0.00444658       0.00003072
Cu       3.63699636       1.81850364       1.81850364       0.00031318      -0.00031334      -0.00029024
Cu       5.45550000       0.00000000       1.81850364       0.00000227       0.00000229      -0.00443336
Cu       7.27400364       0.00000000       0.00000000      -0.00442509      -0.00001349      -0.00000276
Cu       9.09249636       1.81850364       0.00000000       0.00840905      -0.00843241      -0.00001762
Cu       7.27400364       1.81850364       1.81850364      -0.00032746      -0.00030647      -0.00032479
Cu       9.09249636       0.00000000       1.81850364       0.00839826      -0.00000472      -0.00843170
Cu       0.00000000       3.63699636       0.00000000      -0.00000854       0.00445670      -0.00000742
Cu       1.81850364       5.45550000       0.00000000      -0.00443552       0.00000301       0.00001094
Cu       0.00000000       5.45550000       1.81850364       0.00001661       0.00000202      -0.00445627
Cu       1.81850364       3.63699636       1.81850364      -0.00028982       0.00033036      -0.00028884
Cu       3.63699636       3.63699636       0.00000000       0.00843534       0.00845151       0.00001111
Cu       5.45550000       5.45550000       0.00000000      -0.00000259       0.00000607       0.00000642
Cu       3.63699636       5.45550000       1.81850364       0.00843357      -0.00000558      -0.00837566
Cu       5.45550000       3.63699636       1.81850364       0.00000705       0.00843163      -0.00838064
Cu       7.27400364       3.63699636       0.00000000      -0.00842675       0.00843188       0.00000221
Cu       9.09249636       5.45550000       0.00000000       0.00443893       0.00001443      -0.00002121
Cu       7.27400364       5.45550000       1.81850364      -0.00845068       0.00000152      -0.00842293
Cu       9.09249636       3.63699636       1.81850364       0.00028387       0.00032806      -0.00032537
Cu       0.00000000       7.27400364       0.00000000      -0.00001444      -0.00444464      -0.00001230
Cu       1.81850364       9.09249636       0.00000000      -0.00841917       0.00839712       0.00000463
Cu       0.00000000       9.09249636       1.81850364       0.00000859       0.00842058      -0.00842619
Cu       1.81850364       7.27400364       1.81850364      -0.00031659      -0.00033550      -0.00029225
Cu       3.63699636       7.27400364       0.00000000       0.00842753      -0.00844522       0.00000522
Cu       5.45550000       9.09249636       0.00000000       0.00002325       0.00444141      -0.00001148
Cu       3.63699636       9.09249636       1.81850364       0.00032969       0.00032195      -0.00028519
Cu       5.45550000       7.27400364       1.81850364       0.00001710      -0.00843456      -0.00840822
Cu       7.27400364       7.27400364       0.00000000      -0.00841197      -0.00841157      -0.00001504
Cu       9.09249636       9.09249636       0.00000000       0.00839663       0.00842159      -0.00004049
Cu       7.27400364       9.09249636       1.81850364      -0.00033639       0.00030539      -0.00033192
Cu       9.09249636       7.27400364       1.81850364       0.00029800      -0.00032199      -0.00035413
Cu       0.00000000       0.00000000       3.63699636       0.00000692       0.00000658       0.00445883
Cu       1.81850364       1.81850364       3.63699636      -0.00027429      -0.00031223       0.00033697
Cu       0.00000000       1.81850364       5.45550000       0.00001155      -0.00443919      -0.00000612
Cu       1.81850364       0.00000000       5.45550000      -0.00443261       0.00001936      -0.00001814
Cu       3.63699636       0.00000000       3.63699636       0.00843135       0.00000819       0.00843679
Cu       5.45550000       1.81850364       3.63699636      -0.00000703      -0.00839406       0.00842730
Cu       3.63699636       1.81850364       5.45550000       0.00842937      -0.00841155      -0.00002274
Cu       5.45550000       0.00000000       5.45550000       0.00000056       0.00001817      -0.00000956
Cu       7.27400364       0.00000000       3.63699636      -0.00843692       0.00000076       0.00841996
Cu       9.09249636       1.81850364       3.63699636       0.00028446      -0.00030364       0.00033994
Cu       7.27400364       1.81850364       5.45550000      -0.00843955      -0.00839973       0.00000963
Cu       9.09249636       0.00000000       5.45550000       0.00443168       0.00000579       0.00000636
Cu       0.00000000       3.63699636       3.63699636       0.00002363       0.00843212       0.00844255
Cu       1.81850364       5.45550000       3.63699636      -0.00839515      -0.00000604       0.00841471
Cu       0.00000000       5.45550000       5.45550000       0.00000701       0.00000941       0.00002617
Cu       1.81850364       3.63699636       5.45550000      -0.00840162       0.00843262      -0.00000994
Cu       3.63699636       3.63699636       3.63699636       0.00031637       0.00034012       0.00032472
Cu       5.45550000       5.45550000       3.63699636      -0.00001242      -0.00002447       0.00444293
Cu       3.63699636       5.45550000       5.45550000       0.00445963      -0.00001466      -0.00003141
Cu       5.45550000       3.63699636       5.45550000      -0.00000412       0.00444106      -0.00002571
Cu       7.27400364       3.63699636       3.63699636      -0.00034473       0.00030871       0.00033124
Cu       9.09249636       5.45550000       3.63699636       0.00840605      -0.00000782       0.00844602
Cu       7.27400364       5.45550000       5.45550000      -0.00446772      -0.00000125       0.00000027
Cu       9.09249636       3.63699636       5.45550000       0.00840917       0.00841898      -0.00000155
Cu       0.00000000       7.27400364       3.63699636       0.00002391      -0.00843756       0.00842903
Cu       1.81850364       9.09249636       3.63699636      -0.00030837       0.00031999       0.00031962
Cu       0.00000000       9.09249636       5.45550000      -0.00000295       0.00443256       0.00000937
Cu       1.81850364       7.27400364       5.45550000      -0.00842948      -0.00845396      -0.00000122
Cu       3.63699636       7.27400364       3.63699636       0.00033466      -0.00034468       0.00031127
Cu       5.45550000       9.09249636       3.63699636      -0.00000465       0.00841801       0.00842527
Cu       3.63699636       9.09249636       5.45550000       0.00843987       0.00842655      -0.00004232
Cu       5.45550000       7.27400364       5.45550000       0.00000438      -0.00445584      -0.00001060
Cu       7.27400364       7.27400364       3.63699636      -0.00035828      -0.00030847       0.00032903
Cu       9.09249636       9.09249636       3.63699636       0.00031292       0.00031243       0.00033257
Cu       7.27400364       9.09249636       5.45550000      -0.00843438       0.00840226       0.00001130
Cu       9.09249636       7.27400364       5.45550000       0.00842171      -0.00842137       0.00002412
Cu       0.00000000       0.00000000       7.27400364      -0.00002763       0.00000228      -0.00444421
Cu       1.81850364       1.81850364       7.27400364      -0.00033713      -0.00029933      -0.00035664
Cu       0.00000000       1.81850364       9.09249636      -0.00003162      -0.00840570       0.00842223
Cu       1.81850364       0.00000000       9.09249636      -0.00842929      -0.00000726       0.00842462
Cu       3.63699636       0.00000000       7.27400364       0.00845056       0.00000967      -0.00845310
Cu       5.45550000       1.81850364       7.27400364       0.00001558      -0.00841878      -0.00846125
Cu       3.63699636       1.81850364       9.09249636       0.00035701      -0.00030578       0.00031037
Cu       5.45550000       0.00000000       9.09249636       0.00000967      -0.00002411       0.00444199
Cu       7.27400364       0.00000000       7.27400364      -0.00842083      -0.00000659      -0.00841715
Cu       9.09249636       1.81850364       7.27400364       0.00032014      -0.00032012      -0.00032280
Cu       7.27400364       1.81850364       9.09249636      -0.00032537      -0.00033217       0.00030950
Cu       9.09249636       0.00000000       9.09249636       0.00841822      -0.00003395       0.00842352
Cu       0.00000000       3.63699636       7.27400364       0.00000581       0.00843133      -0.00843360
Cu       1.81850364       5.45550000       7.27400364      -0.00843309       0.00000561      -0.00842342
Cu       0.00000000       5.45550000       9.09249636      -0.00002469       0.00001488       0.00442877
Cu       1.81850364       3.63699636       9.09249636      -0.00033217       0.00033318       0.00029974
Cu       3.63699636       3.63699636       7.27400364       0.00033412       0.00033867      -0.00033476
Cu       5.45550000       5.45550000       7.27400364       0.00000438       0.00000465      -0.00444866
Cu       3.63699636       5.45550000       9.09249636       0.00842975      -0.00001109       0.00840607
Cu       5.45550000       3.63699636       9.09249636       0.00000173       0.00844879       0.00840868
Cu       7.27400364       3.63699636       7.27400364      -0.00033906       0.00032024      -0.00033367
Cu       9.09249636       5.45550000       7.27400364       0.00842652       0.00001839      -0.00842781
Cu       7.27400364       5.45550000       9.09249636      -0.00840404       0.00001533       0.00842429
Cu       9.09249636       3.63699636       9.09249636       0.00033098       0.00034243       0.00032559
Cu       0.00000000       7.27400364       7.27400364      -0.00001574      -0.00843266      -0.00841272
Cu       1.81850364       9.09249636       7.27400364      -0.00033285       0.00029258      -0.00032402
Cu       0.00000000       9.09249636       9.09249636      -0.00005747       0.00839439       0.00841668
Cu       1.81850364       7.27400364       9.09249636      -0.00032825      -0.00032586       0.00029484
Cu       3.63699636       7.27400364       7.27400364       0.00032691      -0.00034951      -0.00031488
Cu       5.45550000       9.09249636       7.27400364       0.00002874       0.00841360      -0.00841157
Cu       3.63699636       9.09249636       9.09249636       0.00034056       0.00031678       0.00032787
Cu       5.45550000       7.27400364       9.09249636       0.00002628      -0.00842331       0.00841910
Cu       7.27400364       7.27400364       7.27400364      -0.00030876      -0.00031339      -0.00031140
Cu       9.09249636       9.09249636       7.27400364       0.00030502       0.00030106      -0.00028873
Cu       7.27400364       9.09249636       9.09249636      -0.00027988       0.00031838       0.00032521
Cu       9.09249636       7.27400364       9.09249636       0.00030199      -0.00030889       0.00032392
108
Lattice="10.911 0.0 0.0 0.0 10.911 0.0 0.0 0.0 10.911" Properties=species:S:1:pos:R:3:forces:R:3 energy=-405.30394265 stress="0.012720119533278364 -5.56986032884696e-07 7.0320524302585056e-06 -5.56986032884696e-07 0.012721690908098915 -1.0479543754430997e-05 7.0320524302585056e-06 -1.0479543754430997e-05 0.012740210351969705" free_energy=-405.3180227 pbc="T T T"
Cu       0.00656929      10.90831011      10.90907923      -0.02649850       0.03090327       0.00654195
Cu       1.81883882       1.82105888      10.90430883      -0.00296844      -0.01929822       0.03945849
Cu      10.90498695       1.81901493       1.81344693       0.04002772      -0.02305327       0.01991778
Cu       1.81276292       0.00273179       1.82035894       0.03824178       0.01420225      -0.03624892
Cu       3.63492927       0.00070027       0.00045128      -0.00145036       0.00955278       0.00045573
Cu       5.45702721       1.81775023      10.91044583      -0.00841728      -0.00588626       0.00173912
Cu       3.63755784       1.81875230       1.81792121      -0.00864998       0.00674058       0.00341390
Cu       5.44650355      10.90383267       1.81165873       0.05731596       0.04638274       0.03548062
Cu       7.27124468      10.90413305       0.00096410       0.01398279       0.03235349       0.02367381
Cu       9.08835662       1.81758875       0.00348159       0.01214081      -0.00447919      -0.01140124
Cu       7.26816560       1.81732547       1.82035763       0.01963310      -0.00035238      -0.02121146
Cu       9.09585979       0.00043055       1.82128649      -0.02682594      -0.01435238      -0.04145169
Cu       0.00394945       3.62912997       0.00696820      -0.00849681       0.04328018      -0.05584849
Cu       1.81687059       5.45475903       0.00146906      -0.00810733      -0.01745270       0.01023441
Cu      10.91092962       5.45088617       1.82205582       0.01340715       0.04828155      -0.02630799
Cu       1.81364257       3.63260752       1.82349335       0.04897852       0.00861813      -0.03152596
Cu       3.63733831       3.63908844      10.90028987      -0.02146968      -0.02466252       0.07233601
Cu       5.45143609       5.44920468      10.90459481       0.02659852       0.03806101       0.03594302
Cu       3.63312187       5.45267656       1.81791084       0.04398628       0.02318032      -0.00488576
Cu       5.45227864       3.63274555       1.81906719       0.01308718       0.05225185      -0.00559027
Cu       7.27503102       3.64298978      10.90973705      -0.01825165      -0.03055581       0.00547470
Cu       9.10287316       5.45041569       0.00111914      -0.05265315       0.04260124      -0.00555615
Cu       7.27582075       5.45725525       1.81582117      -0.02647146      -0.00954728      -0.00931031
Cu       9.09756201       3.63909051       1.81854783      -0.04784333      -0.02144015      -0.00153113
Cu      10.90896543       7.27709614      10.90548711      -0.00685296      -0.02673315       0.04382023
Cu       1.82070548       9.09313160      10.90001895      -0.00446936       0.00280090       0.08284108
Cu       0.00509936       9.09455723       1.81321966      -0.02695942      -0.01056029       0.02119067
Cu       1.81355463       7.27150665       1.81208360       0.03946879       0.01931347       0.02095695
Cu       3.63991920       7.27279633      10.90185014      -0.01747372       0.00433306       0.09089867
Cu       5.45373907       9.09123309      10.90688415      -0.00058157      -0.00450719       0.02977351
Cu       3.63410113       9.10025179       1.82048027      -0.00396647      -0.07486741      -0.03356912
Cu       5.46072757       7.27499959       1.81357317      -0.05042568      -0.02584278       0.00830090
Cu       7.27732964       7.27693837      10.90559054      -0.02046364      -0.03872887       0.04141903
Cu       9.09771258       9.09669721       0.00270178      -0.01407209      -0.00557316      -0.00330313
Cu       7.27179798       9.09261660       1.82055621       0.01204000      -0.00131649      -0.00753255
Cu       9.09460568       7.27818364       1.82127503       0.00113810      -0.00901091      -0.01446375
Cu      10.90827683       0.00165684       3.62950553       0.00570229       0.00709219       0.04856352
Cu       1.81993854       1.82043325       3.63595425       0.00181632      -0.01672775       0.02062343
Cu      10.90546201       1.81688324       5.45512150       0.05382787       0.02193987      -0.02030865
Cu       1.81596017      10.90857012       5.45094368       0.03794988       0.02634455       0.01601279
Cu       3.64249376      10.90601564       3.63984588      -0.03589970       0.06390309      -0.00511715
Cu       5.45945906       1.81833986       3.63806008      -0.03077833      -0.01951395       0.00046290
Cu       3.64538365       1.82429061       5.45699350      -0.04953548      -0.06313548      -0.02557024
Cu       5.45123533      10.89865977       5.44898701       0.04421061       0.05411886       0.05901978
Cu       7.27536217      10.91064037       3.63785091      -0.01611976       0.00573477       0.00374601
Cu       9.08939851       1.81747931       3.63246295       0.00289595       0.02633294       0.02383090
Cu       7.27303005       1.81980412       5.45680408       0.00088662      -0.02551130       0.00719578
Cu       9.09609972       0.00451584       5.45850020      -0.03778946      -0.01921666      -0.02938898
Cu       0.00193059       3.63897213       3.63454673      -0.02115279      -0.02168723       0.05329190
Cu       1.82049282       5.45465462       3.63923901      -0.03430078       0.03326277      -0.00399889
Cu      10.90537625       5.45767554       5.45709781       0.03822195      -0.00024024      -0.00212691
Cu       1.82003620       3.63811005       5.45593720      -0.03663577      -0.00761431       0.02130988
Cu       3.63544253       3.64211144       3.64205656       0.02196106      -0.03516145      -0.03639296
Cu       5.45945316       5.45715411       3.64485065      -0.01417097      -0.00054180      -0.05784882
Cu       3.63359268       5.45327590       5.45099299       0.01760535       0.03411015       0.03676315
Cu       5.45834908       3.63825877       5.45592182       0.00933413       0.00521525       0.00150469
Cu       7.27552965       3.63842494       3.63762080       0.00742376       0.00276785      -0.00665302
Cu       9.09427562       5.45361065       3.63251980      -0.00819351       0.02165687       0.04949231
Cu       7.27755702       5.45057641       5.46105730      -0.02418153       0.03246029      -0.02061375
Cu       9.09589787       3.63873503       5.46248468      -0.01252446      -0.00448746      -0.05351930
Cu       0.00106240       7.27827617       3.63923072       0.00584314      -0.01851388      -0.01131064
Cu       1.82082168       9.09806927       3.63019805      -0.01221377      -0.03641673       0.02030239
Cu       0.00032526       9.10378892       5.45288758       0.01558574      -0.05992773       0.00427346
Cu       1.81949697       7.27913290       5.45453830      -0.01723986      -0.01986675       0.00382726
Cu       3.63987032       7.27524542       3.63775457      -0.00656556      -0.00262239      -0.04099239
Cu       5.45763496       9.09793190       3.63847142      -0.00059478      -0.05135538      -0.02140623
Cu       3.63718032       9.08790894       5.45242877      -0.00751694       0.02791592       0.04848278
Cu       5.45299331       7.27949525       5.45655378       0.00709433      -0.04216095       0.01630009
Cu       7.27300637       7.27145679       3.63812281       0.00940378      -0.00410145       0.01154205
Cu       9.08844162       9.09381059       3.64101259       0.02449676      -0.00557809      -0.02199171
Cu       7.27615376       9.08859230       5.45559078      -0.01689229       0.03461547       0.00466670
Cu       9.09905453       7.27632495       5.45820135      -0.01748190      -0.02243727      -0.02412594
Cu       0.00011969      10.90870029       7.27155510       0.00149198       0.00267068       0.02773854
Cu       1.81793725       1.81039447       7.27484127       0.00241012       0.02952309      -0.02993426
Cu      10.90659927       1.81587769       9.08751484       0.01966631       0.00376118       0.04185781
Cu       1.81795787      10.90866930       9.09638002      -0.01040383       0.01974299      -0.03489919
Cu       3.64058794       0.00117904       7.27702227      -0.01297325      -0.02839395      -0.05400852
Cu       5.45226009       1.81540371       7.26292101       0.05119120      -0.02992321       0.05186262
Cu       3.63601470       1.81169605       9.08842994       0.00489802       0.01841565       0.00860357
Cu       5.45573524      10.90425056       9.09773441       0.00692796       0.04933282      -0.03146515
Cu       7.27975832      10.90435684       7.28014926      -0.03759149       0.05014954      -0.04458969
Cu       9.09823260       1.82100902       7.26688301      -0.04427978      -0.01173318       0.06040109
Cu       7.27220583       1.81371305       9.09368894       0.00338848       0.01735782      -0.01165586
Cu       9.09205469       0.00517454       9.10228004       0.02336704      -0.02849750      -0.04317975
Cu       0.00378732       3.63867731       7.27583472      -0.01367175       0.01619444      -0.01885473
Cu       1.81719312       5.46402924       7.27690476      -0.00243332      -0.04532389      -0.03493122
Cu       0.00549434       5.45687860       9.09916408      -0.04895898      -0.01298161      -0.04180138
Cu       1.81541855       3.63541405       9.08605364       0.01251776      -0.00307985       0.01462509
Cu       3.63780738       3.63558186       7.27305722      -0.02897271       0.00927453       0.00672177
Cu       5.44603416       5.45306597       7.26940443       0.05285039       0.01806143       0.03961392
Cu       3.63247113       5.45663594       9.09878634       0.01631478      -0.01957101      -0.04443861
Cu       5.44700720       3.62873477       9.09269396       0.04715584       0.03194419      -0.01759849
Cu       7.27516326       3.63679015       7.28650164      -0.01782251      -0.01282580      -0.03336715
Cu       9.08733982       5.45696055       7.27286475       0.06269700      -0.00012864       0.04457673
Cu       7.26962778       5.45645635       9.09291513      -0.00617254       0.00637176       0.00374442
Cu       9.09549525       3.63787404       9.09763817      -0.00050895      -0.00486188      -0.01860172
Cu       0.00403216       7.27851926       7.27649309      -0.03367347      -0.02156812      -0.01793441
Cu       1.82292958       9.09276248       7.27874174      -0.00194718       0.00632547      -0.02312164
Cu       0.00182137       9.09233892       9.09238518      -0.03469014       0.02327057      -0.00873080
Cu       1.81235420       7.27483353       9.09739486       0.03547115      -0.00300688      -0.02079613
Cu       3.63694585       7.27028659       7.28328028      -0.01329174       0.02702956      -0.04815242
Cu       5.45946517       9.09438331       7.28043894      -0.02218959      -0.00470499      -0.04766955
Cu       3.63635032       9.09506470       9.09394043      -0.00823578       0.00555708      -0.01380308
Cu       5.44489745       7.28156409       9.09165971       0.09005685      -0.06054671       0.00069622
Cu       7.27505993       7.27434177       7.27025735      -0.02728249      -0.00639329       0.02128066
Cu       9.09335560       9.09374491       7.27099569       0.01074286       0.00297484       0.02422319
Cu       7.27884888       9.09165098       9.09688924      -0.00601905      -0.00528253      -0.01949439
Cu       9.08564764       7.27761823       9.09340307       0.04338780      -0.02396656      -0.01842779
108
Lattice="10.911 0.0 0.0 0.0 10.911 0.0 0.0 0.0 10.911" Properties=species:S:1:pos:R:3:forces:R:3 energy=-405.25306982 stress="0.012501828618619176 3.960892898831145e-06 -1.6966818543655037e-05 3.960892898831145e-06 0.012483849995272633 -1.4427741423700096e-05 -1.6966818543655037e-05 -1.4427741423700096e-05 0.012537484737462972" free_energy=-405.26710025 pbc="T T T"
Cu       0.01313455      10.90562491      10.90715944      -0.06071509       0.06929095       0.01379321
Cu       1.81917346       1.82361119      10.89762355       0.00208013      -0.02678927       0.06617800
Cu      10.89897990       1.81952272       1.80839318       0.07626292      -0.03392312       0.04500471
Cu       1.80702810       0.00546565       1.82220869       0.07771229       0.03199317      -0.06269257
Cu       3.63286197       0.00140195       0.00090256      -0.00203490       0.01876891      -0.00037858
Cu       5.45855323       1.81699596      10.90989177      -0.01985437      -0.00367958       0.00788259
Cu       3.63811801       1.81900194       1.81733922      -0.01754031       0.01300626       0.00695002
Cu       5.43751573      10.89667233       1.80481928       0.10641077       0.08843963       0.06808823
Cu       7.26848780      10.89727113       0.00193179       0.02703971       0.06749201       0.04689598
Cu       9.08421884       1.81667310       0.00696133       0.01145846      -0.00514775      -0.01446149
Cu       7.26233050       1.81614730       1.82220825       0.04359253      -0.00115587      -0.03750056
Cu       9.09921907       0.00085891       1.82406301      -0.05610838      -0.02537604      -0.07184199
Cu       0.00789771       3.62127012       0.01392778      -0.01525748       0.07266803      -0.10809963
Cu       1.81523623       5.45401534       0.00293953      -0.00679624      -0.03297177       0.01604913
Cu      10.91086121       5.44627966       1.82560408       0.02784757       0.10392690      -0.05054458
Cu       1.80878881       3.62821988       1.82847815       0.10531971       0.02176443      -0.06421224
Cu       3.63767688       3.64117691      10.88959065      -0.05830136      -0.06449277       0.13708604
Cu       5.44737632       5.44291525      10.89819496       0.05308870       0.08123812       0.07747855
Cu       3.62925414       5.44985650       1.81731728       0.07637103       0.03836074      -0.00694826
Cu       5.44905913       3.62850270       1.81962987       0.01860140       0.09158707      -0.00191269
Cu       7.27605567       3.64897860      10.90847498      -0.02925789      -0.05765145       0.01229729
Cu       9.11324188       5.44533793       0.00223741      -0.09723807       0.08541547      -0.01087713
Cu       7.27763384       5.45900920       1.81313739      -0.04177785      -0.01567778      -0.01258374
Cu       9.10262035       3.64118139       1.81859169      -0.10624511      -0.04050999      -0.00095017
Cu      10.90692976       7.28018461      10.89998087      -0.01533466      -0.04327052       0.08988188
Cu       1.82290655       9.09376717      10.88905034       0.00251580      -0.01102884       0.16039321
Cu       0.01019458       9.09661657       1.80793884      -0.04498938      -0.02904414       0.04226066
Cu       1.80861172       7.26901251       1.80566685       0.08106762       0.04752087       0.05190318
Cu       3.64283931       7.27158958      10.89271415      -0.04127340       0.01185017       0.17652369
Cu       5.45197804       9.08996916      10.90277289       0.00055806      -0.01150233       0.07159449
Cu       3.63120524       9.10799598       1.82245178      -0.00582904      -0.15186653      -0.06980089
Cu       5.46594750       7.27599162       1.80864402      -0.09222682      -0.03745924       0.01879558
Cu       7.28065258       7.27986732      10.90018742      -0.03180582      -0.06815748       0.07428843
Cu       9.10292662       9.10089729       0.00540313      -0.03043540      -0.01595439      -0.00447662
Cu       7.26959407       9.09273651       1.82260770       0.02989657      -0.00451849      -0.01996989
Cu       9.09671510       7.28236234       1.82404413       0.00050861      -0.02258560      -0.03468597
Cu      10.90555465       0.00331476       3.62202200       0.01818403       0.00983647       0.09340860
Cu       1.82137367       1.82236024       3.63491531       0.00431505      -0.03276888       0.04096240
Cu      10.89993221       1.81526623       5.45473994       0.11125839       0.04267367      -0.04363135
Cu       1.81342260      10.90614428       5.44638975       0.07874784       0.05648309       0.03539531
Cu       3.64798570      10.90104088       3.64269463      -0.07155504       0.12245435      -0.01843106
Cu       5.46341331       1.81817314       3.63912368      -0.05907004      -0.02859427      -0.00403339
Cu       3.65376330       1.83006799       5.45848318      -0.11801256      -0.11127254      -0.04906315
Cu       5.44697731      10.88632783       5.44248307       0.09477814       0.11208883       0.11560990
Cu       7.27671818      10.91028151       3.63870612      -0.03334881       0.01381287      -0.00537860
Cu       9.08630110       1.81645892       3.62793303       0.01505317       0.04953005       0.05853124
Cu       7.27205668       1.82110078       5.45810937       0.01224600      -0.04304899       0.01276524
Cu       9.09969730       0.00902885       5.46149592      -0.07909190      -0.04048612      -0.05771085
Cu       0.00385813       3.64094462       3.63210507      -0.03757914      -0.04548352       0.09749758
Cu       1.82247688       5.45381414       3.64148100      -0.06411052       0.06067527      -0.01193417
Cu      10.89975840       5.45985098       5.45869529       0.08026415      -0.00728545      -0.00740414
Cu       1.82156308       3.63922253       5.45637757      -0.07388946      -0.02627140       0.03801369
Cu       3.63389207       3.64722117       3.64711130       0.04056106      -0.07175034      -0.07454897
Cu       5.46340426       5.45880822       3.65269609      -0.02609351      -0.00212617      -0.10751154
Cu       3.63019172       5.45105704       5.44649144       0.03262611       0.07122505       0.08485089
Cu       5.46119958       3.63952193       5.45634386       0.01449998       0.00485028       0.00544122
Cu       7.27705675       3.63985384       3.63824414       0.01058766       0.00155097      -0.01678970
Cu       9.09605368       5.45172458       3.62805065      -0.01868123       0.04070375       0.08387234
Cu       7.28110681       5.44565773       5.46661154      -0.03603740       0.06505368      -0.03898075