120
Lattice="15.784065 0.0 0.0 -6.313626 10.93552101 0.0 0.0 0.0 15.244416" Properties=species:S:1:pos:R:3:forces:R:3 energy=-179.94196142 stress="-0.008687579489862944 0.0004967412703866613 -1.795058024604025e-08 0.0004967412703866613 -0.005941338349605258 2.9684617402700776e-08 -1.795058024604025e-08 2.9684617402700776e-08 -0.008469892603490922" free_energy=-179.94304231 pbc="T T T"
Mg       0.00000000       0.00000000       0.00000000       0.00044327      -0.00178560       0.00000092
Mg       0.00000003       1.82258687       2.54073605      -0.00082226      -0.00563524      -0.00000490
Mg       3.15681300       0.00000000       0.00000000       0.00182259      -0.00028564       0.00000154
Mg       3.15681303       1.82258687       2.54073605       0.00033922      -0.00077812      -0.00000461
Mg       6.31362600       0.00000000       0.00000000       0.00418171      -0.00192935       0.00000243
Mg       6.31362603       1.82258687       2.54073605      -0.00281945       0.00167286      -0.00000435
Mg       9.47043900       0.00000000       0.00000000      -0.00356335      -0.00126211       0.00000424
Mg       9.47043903       1.82258687       2.54073605      -0.00240204       0.00310102      -0.00000614
Mg      12.62725200       0.00000000       0.00000000      -0.00135152      -0.00303891       0.00000373
Mg      12.62725203       1.82258687       2.54073605       0.00137857      -0.00005991      -0.00000378
Mg      -1.57840650       2.73388025       0.00000000       0.00044349      -0.00178780       0.00000192
Mg      -1.57840647       4.55646712       2.54073605      -0.00082254      -0.00563600      -0.00000383
Mg       1.57840650       2.73388025       0.00000000       0.00182336      -0.00028751       0.00000331
Mg       1.57840653       4.55646712       2.54073605       0.00034062      -0.00077740      -0.00000474
Mg       4.73521950       2.73388025       0.00000000       0.00418085      -0.00193005       0.00000284
Mg       4.73521953       4.55646712       2.54073605      -0.00281999       0.00167138      -0.00000406
Mg       7.89203250       2.73388025       0.00000000      -0.00356309      -0.00126177       0.00000387
Mg       7.89203253       4.55646712       2.54073605      -0.00240314       0.00310256      -0.00000513
Mg      11.04884550       2.73388025       0.00000000      -0.00135286      -0.00303942       0.00000284
Mg      11.04884553       4.55646712       2.54073605       0.00137573      -0.00006030      -0.00000411
Mg      -3.15681300       5.46776051       0.00000000       0.00044168      -0.00178755       0.00000214
Mg      -3.15681297       7.29034738       2.54073605      -0.00082220      -0.00563475      -0.00000271
Mg       0.00000000       5.46776051       0.00000000       0.00182453      -0.00028714       0.00000163
Mg       0.00000003       7.29034738       2.54073605       0.00033963      -0.00077707      -0.00000360
Mg       3.15681300       5.46776051       0.00000000       0.00418191      -0.00192865       0.00000323
Mg       3.15681303       7.29034738       2.54073605      -0.00281934       0.00167077      -0.00000470
Mg       6.31362600       5.46776051       0.00000000      -0.00356202      -0.00126163       0.00000320
Mg       6.31362603       7.29034738       2.54073605      -0.00240336       0.00310205      -0.00000517
Mg       9.47043900       5.46776051       0.00000000      -0.00135442      -0.00303778       0.00000193
Mg       9.47043903       7.29034738       2.54073605       0.00137577      -0.00005967      -0.00000413
Mg      -4.73521950       8.20164076       0.00000000       0.00044075      -0.00178662       0.00000139
Mg      -4.73521947      10.02422763       2.54073605      -0.00082213      -0.00563468      -0.00000473
Mg      -1.57840650       8.20164076       0.00000000       0.00182373      -0.00028641       0.00000255
Mg      -1.57840647      10.02422763       2.54073605       0.00034035      -0.00077757      -0.00000447
Mg       1.57840650       8.20164076       0.00000000       0.00418075      -0.00192941       0.00000250
Mg       1.57840653      10.02422763       2.54073605      -0.00281918       0.00167149      -0.00000543
Mg       4.73521950       8.20164076       0.00000000      -0.00356170      -0.00126447       0.00000314
Mg       4.73521953      10.02422763       2.54073605      -0.00240218       0.00310146      -0.00000441
Mg       7.89203250       8.20164076       0.00000000      -0.00135266      -0.00303977       0.00000289
Mg       7.89203253      10.02422763       2.54073605       0.00137745      -0.00006105      -0.00000456
Mg       0.00000000       0.00000000       5.08147195       0.00044224      -0.00178744      -0.00000786
Mg       0.00000003       1.82258687       7.62220800      -0.00082193      -0.00563447      -0.00000212
Mg       3.15681300       0.00000000       5.08147195       0.00182348      -0.00028617      -0.00000815
Mg       3.15681303       1.82258687       7.62220800       0.00033960      -0.00077770      -0.00000261
Mg       6.31362600       0.00000000       5.08147195       0.00418133      -0.00193017      -0.00000808
Mg       6.31362603       1.82258687       7.62220800      -0.00282086       0.00167092      -0.00000309
Mg       9.47043900       0.00000000       5.08147195      -0.00356255      -0.00126277      -0.00000885
Mg       9.47043903       1.82258687       7.62220800      -0.00240281       0.00310121      -0.00000298
Mg      12.62725200       0.00000000       5.08147195      -0.00135260      -0.00304031      -0.00000860
Mg      12.62725203       1.82258687       7.62220800       0.00137712      -0.00006044      -0.00000279
Mg      -1.57840650       2.73388025       5.08147195       0.00044332      -0.00178727      -0.00000816
Mg      -1.57840647       4.55646712       7.62220800      -0.00082216      -0.00563470      -0.00000460
Mg       1.57840650       2.73388025       5.08147195       0.00182466      -0.00028708      -0.00000847
Mg       1.57840653       4.55646712       7.62220800       0.00034002      -0.00077790      -0.00000311
Mg       4.73521950       2.73388025       5.08147195       0.00418043      -0.00192909      -0.00000826
Mg       4.73521953       4.55646712       7.62220800      -0.00282081       0.00167048      -0.00000278
Mg       7.89203250       2.73388025       5.08147195      -0.00356314      -0.00126307      -0.00000973
Mg       7.89203253       4.55646712       7.62220800      -0.00240238       0.00310151      -0.00000297
Mg      11.04884550       2.73388025       5.08147195      -0.00135314      -0.00303966      -0.00000900
Mg      11.04884553       4.55646712       7.62220800       0.00137804      -0.00006012      -0.00000234
Mg      -3.15681300       5.46776051       5.08147195       0.00044336      -0.00178597      -0.00000733
Mg      -3.15681297       7.29034738       7.62220800      -0.00082346      -0.00563324      -0.00000191
Mg       0.00000000       5.46776051       5.08147195       0.00182498      -0.00028713      -0.00000857
Mg       0.00000003       7.29034738       7.62220800       0.00033833      -0.00077696      -0.00000348
Mg       3.15681300       5.46776051       5.08147195       0.00418107      -0.00192882      -0.00000938
Mg       3.15681303       7.29034738       7.62220800      -0.00282040       0.00166984      -0.00000368
Mg       6.31362600       5.46776051       5.08147195      -0.00356335      -0.00126323      -0.00000964
Mg       6.31362603       7.29034738       7.62220800      -0.00240204       0.00310150      -0.00000307
Mg       9.47043900       5.46776051       5.08147195      -0.00135326      -0.00303896      -0.00000871
Mg       9.47043903       7.29034738       7.62220800       0.00137712      -0.00005953      -0.00000224
Mg      -4.73521950       8.20164076       5.08147195       0.00044147      -0.00178653      -0.00000775
Mg      -4.73521947      10.02422763       7.62220800      -0.00082353      -0.00563358      -0.00000132
Mg      -1.57840650       8.20164076       5.08147195       0.00182358      -0.00028572      -0.00000838
Mg      -1.57840647      10.02422763       7.62220800       0.00033866      -0.00077614      -0.00000235
Mg       1.57840650       8.20164076       5.08147195       0.00418194      -0.00193034      -0.00000936
Mg       1.57840653      10.02422763       7.62220800      -0.00281982       0.00167119      -0.00000265
Mg       4.73521950       8.20164076       5.08147195      -0.00356205      -0.00126269      -0.00001005
Mg       4.73521953      10.02422763       7.62220800      -0.00240114       0.00310154      -0.00000340
Mg       7.89203250       8.20164076       5.08147195      -0.00135319      -0.00304015      -0.00000817
Mg       7.89203253      10.02422763       7.62220800       0.00137846      -0.00005912      -0.00000201
Mg       0.00000000       0.00000000      10.16294405       0.00044266      -0.00178725       0.00000541
Mg       0.00000003       1.82258687      12.70367995      -0.00082161      -0.00563615       0.00000877
Mg       3.15681300       0.00000000      10.16294405       0.00182338      -0.00028721       0.00000569
Mg       3.15681303       1.82258687      12.70367995       0.00033888      -0.00077936       0.00000805
Mg       6.31362600       0.00000000      10.16294405       0.00418008      -0.00192983       0.00000576
Mg       6.31362603       1.82258687      12.70367995      -0.00281952       0.00167025       0.00000864
Mg       9.47043900       0.00000000      10.16294405      -0.00356329      -0.00126393       0.00000418
Mg       9.47043903       1.82258687      12.70367995      -0.00240431       0.00310198       0.00001002
Mg      12.62725200       0.00000000      10.16294405      -0.00135101      -0.00304037       0.00000509
Mg      12.62725203       1.82258687      12.70367995       0.00137712      -0.00005903       0.00000921
Mg      -1.57840650       2.73388025      10.16294405       0.00044271      -0.00178733       0.00000473
Mg      -1.57840647       4.55646712      12.70367995      -0.00082292      -0.00563544       0.00000770
Mg       1.57840650       2.73388025      10.16294405       0.00182385      -0.00028822       0.00000554
Mg       1.57840653       4.55646712      12.70367995       0.00033975      -0.00077777       0.00000947
Mg       4.73521950       2.73388025      10.16294405       0.00418089      -0.00193076       0.00000471
Mg       4.73521953       4.55646712      12.70367995      -0.00281882       0.00167077       0.00000882
Mg       7.89203250       2.73388025      10.16294405      -0.00356417      -0.00126313       0.00000582
Mg       7.89203253       4.55646712      12.70367995      -0.00240136       0.00310072       0.00000968
Mg      11.04884550       2.73388025      10.16294405      -0.00135390      -0.00303928       0.00000575
Mg      11.04884553       4.55646712      12.70367995       0.00137588      -0.00005873       0.00000811
Mg      -3.15681300       5.46776051      10.16294405       0.00044140      -0.00178789       0.00000671
Mg      -3.15681297       7.29034738      12.70367995      -0.00082392      -0.00563477       0.00000708
Mg       0.00000000       5.46776051      10.16294405       0.00182479      -0.00028743       0.00000443
Mg       0.00000003       7.29034738      12.70367995       0.00033926      -0.00077700       0.00000893
Mg       3.15681300       5.46776051      10.16294405       0.00418135      -0.00193091       0.00000448
Mg       3.15681303       7.29034738      12.70367995      -0.00281970       0.00167122       0.00000858
Mg       6.31362600       5.46776051      10.16294405      -0.00356251      -0.00126319       0.00000473
Mg       6.31362603       7.29034738      12.70367995      -0.00240160       0.00310108       0.00000739
Mg       9.47043900       5.46776051      10.16294405      -0.00135378      -0.00303788       0.00000650
Mg       9.47043903       7.29034738      12.70367995       0.00137757      -0.00006000       0.00000863
Mg      -4.73521950       8.20164076      10.16294405       0.00044355      -0.00178530       0.00000624
Mg      -4.73521947      10.02422763      12.70367995      -0.00082309      -0.00563462       0.00000851
Mg      -1.57840650       8.20164076      10.16294405       0.00182413      -0.00028568       0.00000570
Mg      -1.57840647      10.02422763      12.70367995       0.00033849      -0.00077655       0.00000654
Mg       1.57840650       8.20164076      10.16294405       0.00417980      -0.00192977       0.00000617
Mg       1.57840653      10.02422763      12.70367995      -0.00282010       0.00167196       0.00000934
Mg       4.73521950       8.20164076      10.16294405      -0.00356372      -0.00126435       0.00000395
Mg       4.73521953      10.02422763      12.70367995      -0.00240204       0.00310230       0.00000852
Mg       7.89203250       8.20164076      10.16294405      -0.00135227      -0.00303844       0.00000620
Mg       7.89203253      10.02422763      12.70367995       0.00137966      -0.00006077       0.00000806
120
Lattice="15.784065 0.0 0.0 -6.313626 10.93552101 0.0 0.0 0.0 15.244416" Properties=species:S:1:pos:R:3:forces:R:3 energy=-179.92330255 stress="-0.008726830387163268 0.0005334220577836559 -8.831111262212222e-08 0.0005334220577836559 -0.005915189778058208 2.9666704271509496e-06 -8.831111262212222e-08 2.9666704271509496e-06 -0.008494957187182043" free_energy=-179.92437154 pbc="T T T"
Mg      -0.00053536       0.00131740      15.24071618       0.01046703       0.00124599       0.00651448
Mg      -0.00358522       1.83381120       2.55258005       0.02078882      -0.02405942      -0.03182872
Mg      -3.15603762      10.92768943       0.01305379      -0.00192970       0.03907296      -0.03861583
Mg       3.15305586       1.82198257       2.54326891       0.01050278       0.01065215       0.00001511
Mg       6.30539215       0.00139034       0.00665297       0.03267838      -0.01838588      -0.01338488
Mg       6.31910108       1.81740147       2.55003149      -0.00449670       0.01804469      -0.03661645
Mg       9.47560070       0.00092843      15.24051953      -0.02368670       0.00143140      -0.00289976
Mg       9.47001352       1.81137271       2.53730072       0.01162334       0.04506481       0.00598591
Mg      12.63042450       0.00287539      15.23608112      -0.00426015      -0.01624586       0.01973287
Mg      12.63230622       1.82520462       2.54307226      -0.02932981      -0.00116399      -0.00772442
Mg      -1.57411027       2.73484783      15.24060688      -0.01238289      -0.00512377      -0.00998216
Mg      -1.57757534       4.55121873       2.53576972      -0.00639774       0.03389778       0.00814432
Mg       1.57806569       2.74055508       0.00514758       0.01235391      -0.03714619      -0.00744886
Mg       1.57647245       4.56217393       2.54029762       0.01143988      -0.01376863       0.02000936
Mg       4.73939480       2.73315096      15.24296153      -0.01773947      -0.01341282       0.01592197
Mg       4.73636255       4.55283555       2.53314616       0.00025303       0.01142424       0.02253263
Mg       7.88677189       2.73842002      15.23839644       0.02426421      -0.02110840       0.02321610
Mg       7.89463125       4.55462143       2.53969257      -0.00602023       0.01014119       0.00087759
Mg      11.05120373       2.73177254      15.24088326      -0.00673188       0.01698989       0.01561715
Mg      11.05198921       4.56006196       2.54218214      -0.00777692      -0.01327386      -0.01676165
Mg      -3.14574723       5.47151708      15.23965517      -0.03903176      -0.01129913       0.01886150
Mg      -3.15741320       7.29487818       2.54279755       0.01385104      -0.01796144       0.00656378
Mg       0.00634639       5.46295937      15.24234901      -0.01174070       0.03037809       0.00390447
Mg       0.00690436       7.29148292       2.54160071      -0.02217005      -0.00206778      -0.00857654
Mg       3.15937649       5.46606769      15.24319995      -0.00552541      -0.00099317      -0.00242368
Mg       3.16150702       7.29235711       2.54134339      -0.00258189       0.00260916       0.00156706
Mg       6.30992230       5.46351938      15.23536234       0.00158063       0.00648070       0.01883454
Mg       6.31441303       7.29159184       2.54316403      -0.00235768      -0.00154396       0.00684560
Mg       9.46039677       5.47798894      15.23814475       0.04693042      -0.02217422       0.01622391
Mg       9.47494718       7.29186402       2.54327028      -0.00966650      -0.00037976      -0.00130770
Mg      -4.72153620       8.20980915       0.01012001      -0.05280585      -0.03279693      -0.04465505
Mg      -4.73368955      10.03152851       2.53515019      -0.01713055      -0.00328015       0.03082018
Mg      -1.58745014       8.20555677       0.00400532       0.05650629      -0.01910727      -0.00720860
Mg      -1.57676073      10.02315114       2.55180426       0.00561490       0.00349941      -0.02880030
Mg       1.59061418       8.20503985       0.00149837      -0.04539166      -0.01187322      -0.00820260
Mg       1.58041502      10.02602302       2.53932366      -0.00643230      -0.01136068      -0.00418590
Mg       4.73379354       8.19297687       0.00473354       0.00654322       0.03269370      -0.01453291
Mg       4.73279188      10.02980157       2.53947397       0.02306260      -0.01927999       0.00399653
Mg       7.88911210       8.19097841       0.01613317       0.00934865       0.04264293      -0.05566964
Mg       7.89945224      10.03730553       2.53479271      -0.02193167      -0.03177808       0.02267159
Mg       9.46954714      10.93485897       5.08863256      -0.00015935      -0.00164499      -0.03254283
Mg       0.00378455       1.81595973       7.62583831      -0.03681813       0.02169569      -0.00143793
Mg      -3.15266684      10.92281011       5.07693414      -0.01626172       0.04686778       0.01887520
Mg       3.15919993       1.82947592       7.62427377       0.00594751      -0.02658905      -0.01324765
Mg       0.00286771      10.93318234       5.08082863       0.01650141      -0.00107505       0.02252191
Mg       6.30779249       1.83234912       7.62985932       0.02296505      -0.04041813      -0.02276569
Mg       3.14967687      10.93010574       5.07945740       0.03281511       0.01473095      -0.00345895
Mg       9.46863239       1.81887918       7.61087850       0.00090994       0.00537838       0.04567436
Mg      12.62833760       0.00204090       5.08377233      -0.01997346       0.00000612      -0.00647160
Mg      12.62164402       1.82874729       7.62373397       0.02412999      -0.02341412      -0.00104101
Mg      14.20775320       2.72987949       5.07431942      -0.01476894       0.01380712       0.04710344
Mg      -1.58142211       4.55915989       7.62236929       0.00594417      -0.02364916       0.00178834
Mg       1.57987533       2.72466139       5.09607991       0.02114878       0.02728284      -0.03869614
Mg       1.57584958       4.55164172       7.62093372       0.00463465       0.03116904       0.00013404
Mg       4.75303958       2.72221938       5.07143030      -0.05727564       0.03880103       0.03530399
Mg       4.73641461       4.55839713       7.62150356      -0.02415976      -0.00443381      -0.01188847
Mg       7.89761646       2.73951008       5.08229576      -0.01463309      -0.01595348      -0.00551739
Mg       7.89326356       4.55272411       7.62260390      -0.00217271       0.02090509      -0.00658983
Mg      11.03862450       2.74655704       5.09210432       0.03218209      -0.04329659      -0.04391924
Mg      11.04605279       4.55788612       7.62458994       0.00687305      -0.00218548       0.00947618
Mg      -3.15166449       5.46802832       5.08157896      -0.01250803       0.00568126      -0.00111233
Mg      -3.15886237       7.28347221       7.62760818      -0.00666818       0.03287452      -0.01857021
Mg      -0.00621870       5.46702389       5.08226252       0.01576356      -0.00054355      -0.00474407
Mg      -0.00386085       7.29852102       7.61648662       0.02355896      -0.02154484       0.01720857
Mg       3.15368094       5.48068553       5.07574874       0.01459756      -0.06033236       0.01745578
Mg       3.16419031       7.29454312       7.62702203      -0.02855391      -0.02044586       0.00942403
Mg       6.30795646       5.46945289       5.08613019       0.01467742      -0.01098782      -0.02925398
Mg       6.30836672       7.28961590       7.61458762       0.02197563       0.00925159       0.03349789
Mg       9.47314120       5.47027655       5.08418850      -0.01083775       0.00552832      -0.01135223
Mg       9.47181487       7.28480646       7.61723207      -0.00647316       0.02603947       0.00659015
Mg      11.04544975       8.20668936       5.07817230       0.01238397      -0.01684740       0.01190750
Mg      -4.74220048      10.03461178       7.61508779       0.02908955      -0.03757146       0.02408545
Mg      -1.58341403       8.20919097       5.08218188       0.01643665      -0.03708622      -0.00225614
Mg      -1.57585838      10.02317771       7.61309565      -0.00423672       0.01763699       0.03537870
Mg       1.58104405       8.20177767       5.08264973      -0.00809190      -0.00598637      -0.00559767
Mg       1.59410483      10.02257210       7.61703679      -0.05299323       0.01598922       0.02522784
Mg       4.73708038       8.20085898       5.08889689      -0.00530174       0.02095382      -0.02463894
Mg       4.73455310      10.02421210       7.62881341       0.00767701       0.00768532      -0.01182347
Mg       7.89388716       8.20285482       5.08158674      -0.00589455      -0.00221774      -0.01326602
Mg       7.88660073      10.01941961       7.61893929       0.01168967       0.02157184       0.01262247
Mg      -6.30953742      10.92976313      10.16845628      -0.01255382       0.01196467      -0.02947517
Mg      -0.00010623       1.82000314      12.69793250      -0.00582820       0.00994897       0.02614067
Mg      -3.15564612      10.93164415      10.16764253      -0.00183537       0.00108530      -0.03254437
Mg       3.15923901       1.81440524      12.70505682      -0.01792198       0.01272158       0.00911591
Mg       0.00124085      10.93361539      10.16710227       0.00179740       0.00311622      -0.01771250
Mg       6.30980976       1.81938386      12.71271913       0.02244592       0.00450483      -0.03441304
Mg       3.15273601      10.93260910      10.16881102       0.00933909       0.01581963      -0.02628646
Mg       9.47624293       1.82185977      12.69947859      -0.03833085       0.00060943       0.00501130
Mg       6.31530934      10.92142436      10.16689037      -0.00324175       0.03741699      -0.02697760
Mg      12.62057073       1.81955292      12.69284483       0.03240598       0.01785196       0.03050309
Mg      14.20554277       2.72630172      10.16536090      -0.00201273       0.00530074      -0.01764013
Mg      -1.58157155       4.56369561      12.69792472       0.00461966      -0.04048609       0.01439580
Mg       1.57385576       2.73194335      10.16142769       0.01223982      -0.00965102       0.01055985
Mg       1.56913885       4.54752088      12.70877402       0.02353969       0.01806201      -0.01587115
Mg       4.72938239       2.72788157      10.16251385       0.01532275       0.01550117       0.01414543
Mg       4.72855111       4.55103840      12.70324929       0.01581774       0.01618352      -0.01476112
Mg       7.88967685       2.73812356      10.15575189       0.00502218      -0.01437164       0.02976297
Mg       7.89629470       4.55573280      12.70277641      -0.02838089       0.01406236      -0.01868668
Mg      11.05048265       2.73199847      10.16372014      -0.01899265      -0.00438075      -0.01723053
Mg      11.04573187       4.54836489      12.70674225       0.00033308       0.03881226      -0.00355116
Mg      12.62748803       5.46249385      10.16941988      -0.01026141       0.00886128      -0.02233985
Mg      -3.15697621       7.28207444      12.70023456      -0.01937396       0.03351874       0.00779705
Mg      -0.00035426       5.46178654      10.15949424      -0.00395768       0.01683253      -0.00460057
Mg      -0.00357061       7.28598870      12.69995315       0.00668599       0.01084939       0.02228704
Mg       3.14804577       5.46114801      10.16863982       0.01786051       0.01493754      -0.01594851
Mg       3.15586940       7.29243180      12.70087848      -0.00635985      -0.01678298       0.01815338
Mg       6.30948896       5.47006604      10.15229141      -0.00212980      -0.00586335       0.04039982
Mg       6.30525565       7.29683367      12.70426213       0.03530704      -0.01729428      -0.00277796
Mg       9.46663952       5.47619606      10.16406391       0.01006031      -0.02062435       0.00266380
Mg       9.46904827       7.30523860      12.69835675      -0.00071331      -0.02855816       0.02907691
Mg      11.04113259       8.20333336      10.15909423       0.03387327      -0.00781991      -0.00344658
Mg      -4.73725599      10.02528739      12.69947341       0.01672112      -0.01221909       0.02618855
Mg      -1.57703591       8.20509081      10.15862119      -0.00956180      -0.01738653       0.00716575
Mg      -1.58216462      10.02051250      12.70328024       0.01187233      -0.00467603       0.01328200
Mg       1.57646879       8.20515390      10.16907017       0.00624932      -0.02319588      -0.03182047
Mg       1.58318607      10.01589072      12.70114282      -0.02517151       0.03388918       0.02712226
Mg       4.73688213       8.20136146      10.17588153      -0.01263357      -0.01107727      -0.03849032
Mg       4.73819925      10.03152928      12.69939383      -0.01133083      -0.02412028       0.02805225
Mg       7.89543744       8.20591327      10.15207692      -0.02193933      -0.02148164       0.02408038
Mg       7.89533920      10.03080742      12.70095882      -0.00984617      -0.02938371       0.01912806
120
Lattice="15.784065 0.0 0.0 -6.313626 10.93552101 0.0 0.0 0.0 15.244416" Properties=species:S:1:pos:R:3:forces:R:3 energy=-179.86783179 stress="-0.008817328337337827 0.0005557505573607731 -3.7472273169247832e-06 0.0005557505573607731 -0.005931483424876599 -3.534254542531395e-06 -3.7472273169247832e-06 -3.534254542531395e-06 -0.00857337002779463" free_energy=-179.86886388 pbc="T T T"
Mg      -0.00106625       0.00263524      15.23701895       0.01965066       0.00632103       0.01963062
Mg      -0.00716227       1.84502623       2.56441139       0.04991313      -0.05069619      -0.06526310
Mg      -3.15526291      10.91987348       0.02609234      -0.00031415       0.08159074      -0.07529107
Mg       3.14930316       1.82138254       2.54580177       0.02132278       0.02121447       0.00348945
Mg       6.29717130       0.00277347       0.01330060       0.06101348      -0.03153932      -0.02565438
Mg       6.32457443       1.81222339       2.55931244      -0.01014181       0.02902128      -0.07305417
Mg       9.48075297       0.00185762      15.23662199      -0.03803600       0.00095363      -0.00734782
Mg       9.46959269       1.80017671       2.53386768       0.02362508       0.08980141       0.01240535
Mg      12.63359562       0.00574443      15.22775401      -0.01046611      -0.02740358       0.03859256
Mg      12.63734869       1.82782214       2.54540542      -0.06191835      -0.00192660      -0.01828285
Mg      -1.56981890       2.73581343      15.23679364      -0.02444059      -0.01160113      -0.01550864
Mg      -1.57674658       4.54598401       2.53080645      -0.00789917       0.06801447       0.01307110
Mg       1.57772993       2.74721514       0.01029212       0.02074526      -0.07399040      -0.01235028
Mg       1.57454303       4.56787539       2.53986727       0.02428196      -0.02671367       0.03943212
Mg       4.74356324       2.73241631      15.24151331      -0.04494696      -0.02087361       0.03170619
Mg       4.73750585       4.54920867       2.52556511       0.00061530       0.01683256       0.04453717
Mg       7.88152075       2.74295160      15.23238602       0.04821547      -0.03969169       0.04351474
Mg       7.89722767       4.55277999       2.53864955      -0.00633291       0.01430668      -0.00081063
Mg      11.05355947       2.72967161      15.23735662      -0.01141691       0.03600267       0.03600253
Mg      11.05512986       4.56365165       2.54362167      -0.01749441      -0.02544622      -0.03686783
Mg      -3.13469687       5.47526916      15.23490181      -0.07050831      -0.02186318       0.03656056
Mg      -3.15800792       7.29940188       2.54486165       0.02798587      -0.03408878       0.01400703
Mg       0.01268830       5.45817038      15.24028339      -0.02780147       0.06283634       0.00846803
Mg       0.01380007       7.29261781       2.54246202      -0.04027220       0.00011329      -0.01408986
Mg       3.16193790       5.46437465      15.24198299      -0.01791520       0.00336740      -0.00404627
Mg       3.16620000       7.29436804       2.54195134      -0.00599987       0.00313851       0.00523111
Mg       6.30621936       5.45928077      15.22631600       0.00670220       0.01767283       0.03961752
Mg       6.31519923       7.29283575       2.54559460      -0.00001441      -0.00595402       0.01344703
Mg       9.45037310       5.48820873      15.23187991       0.09502494      -0.04545879       0.02728429
Mg       9.47945154       7.29338067       2.54580406      -0.01954229       0.00092803      -0.00404044
Mg      -4.70787386       8.21796465       0.02022218      -0.10270224      -0.05780234      -0.07984774
Mg      -4.73216642      10.03882830       2.52957653      -0.03297221      -0.00537997       0.05794837
Mg      -1.59647133       8.20946534       0.00800774       0.11186224      -0.03854185      -0.02054759
Mg      -1.57511262      10.02207628       2.56286088       0.01073840       0.00503383      -0.05618803