120
Lattice="15.9435 0.0 -0.03985875 -6.3774 11.04598082 -0.01167145 -0.038496 -0.038496 15.3984" Properties=species:S:1:pos:R:3:forces:R:3 energy=-180.52433004 stress="-0.0012190938843089129 0.0003966351348222095 -0.0007243666490530281 0.0003966351348222095 0.0018173994191389964 -0.0007447319193836536 -0.0007243666490530281 -0.0007447319193836536 -0.0008725831171484288" free_energy=-180.52330619 pbc="T T T"
Mg       0.00000000       0.00000000       0.00000000       0.00042731      -0.00123427      -0.00021080
Mg      -0.00641597       1.83458084       2.56179756      -0.00223901       0.00198416       0.00120137
Mg       3.18870000       0.00000000      -0.00797175      -0.00149154      -0.00101696      -0.00133232
Mg       3.18228403       1.83458084       2.55382581       0.00248096       0.00218525       0.00155669
Mg       6.37740000       0.00000000      -0.01594350       0.00386780      -0.00473422       0.00008633
Mg       6.37098403       1.83458084       2.54585406      -0.00365578       0.00068000       0.00081308
Mg       9.56610000       0.00000000      -0.02391525      -0.00312704       0.00240482      -0.00051830
Mg       9.55968403       1.83458084       2.53788231       0.00082480       0.00352928       0.00074768
Mg      12.75480000       0.00000000      -0.03188700       0.00237937      -0.00132276       0.00097769
Mg      12.74838403       1.83458084       2.52991056       0.00187361       0.00095656      -0.00008533
Mg      -1.59435000       2.76149521      -0.00291786       0.00042766      -0.00123553      -0.00021229
Mg      -1.60076597       4.59607605       2.55887970      -0.00223971       0.00198233       0.00120155
Mg       1.59435000       2.76149521      -0.01088961      -0.00148999      -0.00101914      -0.00133226
Mg       1.58793403       4.59607605       2.55090795       0.00248229       0.00218404       0.00155536
Mg       4.78305000       2.76149521      -0.01886136       0.00386801      -0.00473498       0.00008747
Mg       4.77663403       4.59607605       2.54293620      -0.00365506       0.00068083       0.00081404
Mg       7.97175000       2.76149521      -0.02683311      -0.00312845       0.00240789      -0.00051829
Mg       7.96533403       4.59607605       2.53496445       0.00082415       0.00353054       0.00074708
Mg      11.16045000       2.76149521      -0.03480486       0.00237882      -0.00132157       0.00097806
Mg      11.15403403       4.59607605       2.52699270       0.00187051       0.00095851      -0.00008365
Mg      -3.18870000       5.52299041      -0.00583572       0.00042720      -0.00123344      -0.00021086
Mg      -3.19511597       7.35757125       2.55596183      -0.00223962       0.00198510       0.00120169
Mg       0.00000000       5.52299041      -0.01380747      -0.00148870      -0.00101999      -0.00133273
Mg      -0.00641597       7.35757125       2.54799008       0.00248343       0.00218379       0.00155525
Mg       3.18870000       5.52299041      -0.02177922       0.00386934      -0.00473422       0.00008676
Mg       3.18228403       7.35757125       2.54001833      -0.00365387       0.00068032       0.00081269
Mg       6.37740000       5.52299041      -0.02975097      -0.00312940       0.00240568      -0.00051645
Mg       6.37098403       7.35757125       2.53204658       0.00082559       0.00352929       0.00074797
Mg       9.56610000       5.52299041      -0.03772272       0.00237670      -0.00132109       0.00097707
Mg       9.55968403       7.35757125       2.52407483       0.00187092       0.00095911      -0.00008580
Mg      -4.78305000       8.28448562      -0.00875359       0.00042531      -0.00123259      -0.00021183
Mg      -4.78946597      10.11906646       2.55304397      -0.00224009       0.00198548       0.00119995
Mg      -1.59435000       8.28448562      -0.01672534      -0.00149098      -0.00101778      -0.00133094
Mg      -1.60076597      10.11906646       2.54507222       0.00248210       0.00218589       0.00155525
Mg       1.59435000       8.28448562      -0.02469709       0.00386869      -0.00473477       0.00008649
Mg       1.58793403      10.11906646       2.53710047      -0.00365427       0.00068016       0.00081322
Mg       4.78305000       8.28448562      -0.03266884      -0.00312798       0.00240615      -0.00051819
Mg       4.77663403      10.11906646       2.52912872       0.00082763       0.00352910       0.00074764
Mg       7.97175000       8.28448562      -0.04064059       0.00237795      -0.00131905       0.00097773
Mg       7.96533403      10.11906646       2.52115697       0.00187243       0.00095745      -0.00008480
Mg      -0.01283200      -0.01283200       5.13279995       0.00042648      -0.00123341      -0.00022400
Mg      -0.01924797       1.82174884       7.69459751      -0.00223849       0.00198363       0.00119319
Mg       3.17586800      -0.01283200       5.12482820      -0.00149101      -0.00101723      -0.00134411
Mg       3.16945203       1.82174884       7.68662576       0.00248193       0.00218581       0.00154836
Mg       6.36456800      -0.01283200       5.11685645       0.00386662      -0.00473465       0.00007568
Mg       6.35815203       1.82174884       7.67865401      -0.00365558       0.00068142       0.00080433
Mg       9.55326800      -0.01283200       5.10888470      -0.00312759       0.00240514      -0.00052914
Mg       9.54685203       1.82174884       7.67068226       0.00082518       0.00352948       0.00073932
Mg      12.74196800      -0.01283200       5.10091295       0.00237916      -0.00132245       0.00096614
Mg      12.73555203       1.82174884       7.66271051       0.00187422       0.00095737      -0.00009332
Mg      -1.60718200       2.74866321       5.12988209       0.00042832      -0.00123474      -0.00022442
Mg      -1.61359797       4.58324405       7.69167965      -0.00223888       0.00198399       0.00119349
Mg       1.58151800       2.74866321       5.12191034      -0.00148980      -0.00101785      -0.00134428
Mg       1.57510203       4.58324405       7.68370790       0.00248365       0.00218477       0.00154904
Mg       4.77021800       2.74866321       5.11393859       0.00386761      -0.00473417       0.00007626
Mg       4.76380203       4.58324405       7.67573615      -0.00365464       0.00068008       0.00080580
Mg       7.95891800       2.74866321       5.10596684      -0.00312912       0.00240685      -0.00052813
Mg       7.95250203       4.58324405       7.66776440       0.00082332       0.00352857       0.00074018
Mg      11.14761800       2.74866321       5.09799509       0.00237886      -0.00132244       0.00096525
Mg      11.14120203       4.58324405       7.65979265       0.00187115       0.00095830      -0.00009122
Mg      -3.20153200       5.51015841       5.12696422       0.00042690      -0.00123466      -0.00022388
Mg      -3.20794797       7.34473925       7.68876178      -0.00223921       0.00198614       0.00119327
Mg      -0.01283200       5.51015841       5.11899247      -0.00148938      -0.00101916      -0.00134509
Mg      -0.01924797       7.34473925       7.68079003       0.00248289       0.00218577       0.00154712
Mg       3.17586800       5.51015841       5.11102072       0.00386777      -0.00473657       0.00007629
Mg       3.16945203       7.34473925       7.67281828      -0.00365320       0.00068030       0.00080597
Mg       6.36456800       5.51015841       5.10304897      -0.00312938       0.00240603      -0.00052824
Mg       6.35815203       7.34473925       7.66484653       0.00082455       0.00352932       0.00074090
Mg       9.55326800       5.51015841       5.09507722       0.00237902      -0.00131959       0.00096487
Mg       9.54685203       7.34473925       7.65687478       0.00187040       0.00095926      -0.00009269
Mg      -4.79588200       8.27165362       5.12404636       0.00042674      -0.00123188      -0.00022462
Mg      -4.80229797      10.10623446       7.68584392      -0.00223973       0.00198459       0.00119103
Mg      -1.60718200       8.27165362       5.11607461      -0.00149060      -0.00101775      -0.00134534
Mg      -1.61359797      10.10623446       7.67787217       0.00248139       0.00218726       0.00154779
Mg       1.58151800       8.27165362       5.10810286       0.00386777      -0.00473642       0.00007648
Mg       1.57510203      10.10623446       7.66990042      -0.00365459       0.00067958       0.00080594
Mg       4.77021800       8.27165362       5.10013111      -0.00312723       0.00240569      -0.00052799
Mg       4.76380203      10.10623446       7.66192867       0.00082580       0.00352798       0.00074102
Mg       7.95891800       8.27165362       5.09215936       0.00237988      -0.00132029       0.00096673
Mg       7.95250203      10.10623446       7.65395692       0.00187234       0.00095656      -0.00009414
Mg      -0.02566400      -0.02566400      10.26560005       0.00042677      -0.00123390      -0.00022101
Mg      -0.03207997       1.80891684      12.82739746      -0.00223757       0.00198388       0.00120326
Mg       3.16303600      -0.02566400      10.25762830      -0.00149140      -0.00101749      -0.00134079
Mg       3.15662003       1.80891684      12.81942571       0.00248282       0.00218579       0.00155979
Mg       6.35173600      -0.02566400      10.24965655       0.00386692      -0.00473510       0.00007810
Mg       6.34532003       1.80891684      12.81145396      -0.00365382       0.00068208       0.00081855
Mg       9.54043600      -0.02566400      10.24168480      -0.00312953       0.00240305      -0.00052470
Mg       9.53402003       1.80891684      12.80348221       0.00082633       0.00352975       0.00075112
Mg      12.72913600      -0.02566400      10.23371305       0.00237980      -0.00132196       0.00096817
Mg      12.72272003       1.80891684      12.79551046       0.00187345       0.00095738      -0.00008034
Mg      -1.62001400       2.73583120      10.26268219       0.00042802      -0.00123431      -0.00021991
Mg      -1.62642997       4.57041205      12.82447959      -0.00224011       0.00198237       0.00120339
Mg       1.56868600       2.73583120      10.25471044      -0.00148924      -0.00101701      -0.00134264
Mg       1.56227003       4.57041205      12.81650784       0.00248317       0.00218608       0.00155957
Mg       4.75738600       2.73583120      10.24673869       0.00386586      -0.00473513       0.00007762
Mg       4.75097003       4.57041205      12.80853609      -0.00365494       0.00068253       0.00081811
Mg       7.94608600       2.73583120      10.23876694      -0.00312912       0.00240526      -0.00052755
Mg       7.93967003       4.57041205      12.80056434       0.00082408       0.00353022       0.00075163
Mg      11.13478600       2.73583120      10.23079519       0.00237862      -0.00132220       0.00096927
Mg      11.12837003       4.57041205      12.79259259       0.00187188       0.00095777      -0.00008086
Mg      -3.21436400       5.49732641      10.25976433       0.00042614      -0.00123345      -0.00022029
Mg      -3.22077997       7.33190725      12.82156173      -0.00224062       0.00198544       0.00120368
Mg      -0.02566400       5.49732641      10.25179258      -0.00148882      -0.00101915      -0.00134160
Mg      -0.03207997       7.33190725      12.81358998       0.00248318       0.00218498       0.00155837
Mg       3.16303600       5.49732641      10.24382083       0.00386856      -0.00473503       0.00007893
Mg       3.15662003       7.33190725      12.80561823      -0.00365320       0.00068008       0.00081763
Mg       6.35173600       5.49732641      10.23584908      -0.00313003       0.00240628      -0.00052669
Mg       6.34532003       7.33190725      12.79764648       0.00082429       0.00352901       0.00075179
Mg       9.54043600       5.49732641      10.22787733       0.00237708      -0.00132050       0.00096943
Mg       9.53402003       7.33190725      12.78967473       0.00186947       0.00095850      -0.00008085
Mg      -4.80871400       8.25882161      10.25684646       0.00042558      -0.00123396      -0.00022092
Mg      -4.81512997      10.09340246      12.81864387      -0.00223877       0.00198526       0.00120456
Mg      -1.62001400       8.25882161      10.24887471      -0.00149106      -0.00101739      -0.00134160
Mg      -1.62642997      10.09340246      12.81067212       0.00248133       0.00218633       0.00156016
Mg       1.56868600       8.25882161      10.24090296       0.00386878      -0.00473609       0.00007785
Mg       1.56227003      10.09340246      12.80270037      -0.00365361       0.00068033       0.00081740
Mg       4.75738600       8.25882161      10.23293121      -0.00312850       0.00240419      -0.00052563
Mg       4.75097003      10.09340246      12.79472862       0.00082682       0.00352844       0.00075366
Mg       7.94608600       8.25882161      10.22495946       0.00237710      -0.00132167       0.00096888
Mg       7.93967003      10.09340246      12.78675687       0.00187151       0.00095731      -0.00008133
120
Lattice="15.9435 0.0 -0.03985875 -6.3774 11.04598082 -0.01167145 -0.038496 -0.038496 15.3984" Properties=species:S:1:pos:R:3:forces:R:3 energy=-180.5079595 stress="-0.0012581432058305067 0.0003777731756551169 -0.0007177519788210356 0.0003777731756551169 0.001729888836235851 -0.0007516572607323868 -0.0007177519788210356 -0.0007516572607323868 -0.0008912146647646303" free_energy=-180.50692252 pbc="T T T"
Mg      -0.03510988      -0.03809327      15.39759829      -0.00571794      -0.00029425       0.00482268
Mg      -0.00427667       1.84350486       2.56407932      -0.01181436      -0.02618996      -0.00978195
Mg       3.15190181      -0.03575336      15.38978598      -0.01167046      -0.02629018      -0.01071402
Mg       3.17999911       1.83015742       2.54958005       0.01419943       0.00562769       0.01674918
Mg      -0.03902071      11.00613818      15.36426197       0.00025525      -0.00551792       0.01737594
Mg       6.37994973       1.83730637       2.53891304      -0.02581897      -0.01080450       0.01375596
Mg       3.14438834      10.99845637      15.35980742       0.00724270       0.02885547       0.01329681
Mg       9.57092070       1.83363792       2.54317234      -0.01935306      -0.00809092      -0.02575834
Mg       6.32812631      11.00569268      15.35232519       0.01773199       0.01659588      -0.00694753
Mg      12.75036922       1.83532153       2.52175224       0.00245547       0.00590835       0.01495316
Mg      14.30113187       2.71950745      15.35402417       0.02419734       0.00694044       0.00776255
Mg      -1.59815738       4.59666975       2.55861239      -0.01336561      -0.00662812      -0.00490513
Mg       1.59165401       2.75874654      -0.00213413       0.00424879       0.01231871      -0.02902961
Mg       1.58862183       4.58648885       2.55470753       0.01369966       0.02839284       0.00630004
Mg       4.74019579       2.72273233      15.37751948       0.01365942      -0.00185196       0.00244103
Mg       4.77137415       4.59551072       2.54436216       0.00948448       0.00281402      -0.01368397
Mg       7.96868998       2.76351800      -0.02380246       0.00670016      -0.01095332      -0.00592516
Mg       7.96178535       4.59541758       2.53361284       0.01389400       0.01127019      -0.00241386
Mg      11.11908968       2.73427283      15.36070758      -0.00460168      -0.04691903       0.00622334
Mg      11.15485874       4.59602009       2.53192097      -0.01217633      -0.00457146      -0.00309981
Mg      12.75056872       5.51585031      -0.04359915       0.02479643       0.02527178      -0.00335510
Mg      -3.19436923       7.34582045       2.56260611      -0.01095169       0.03892243      -0.01770044
Mg       0.00830477       5.52531783      -0.00125357      -0.02674740      -0.01453358      -0.03578507
Mg      -0.01112469       7.35241162       2.55683008       0.01755818       0.02586091      -0.00873910
Mg       3.17731836       5.52704128      -0.01795277       0.02709371      -0.02155672      -0.00537737
Mg       3.18183214       7.36098974       2.54191891      -0.01267167      -0.00124478       0.01081688
Mg       6.34242718       5.48259631      15.36385643      -0.02084785       0.01785226       0.02265765
Mg       6.36990847       7.36405578       2.53155372       0.00864463      -0.02370664       0.00975249
Mg       9.53094187       5.48157831      15.35429674      -0.01682629       0.01362504       0.01591103
Mg       9.55826447       7.34225709       2.51157237       0.00034319       0.03750893       0.02633948
Mg      11.11455394       8.24049672      15.34542525       0.02947684       0.02303041       0.02124261
Mg      -4.79101289      10.11304458       2.56147617      -0.00462494       0.00848738      -0.02888148
Mg      -1.58853394       8.27777108      -0.01075151      -0.02426613       0.01092480      -0.00686254
Mg      -1.60683059      10.12120469       2.54116704       0.01755142      -0.00620846      -0.00271045
Mg       1.55123172       8.24136386      15.36909980       0.01227167       0.01002034       0.02481439
Mg       1.58656187      10.12048053       2.53874644       0.00300353      -0.00541766      -0.00725530
Mg       4.78261524       8.28282368      -0.02052904      -0.00528557      -0.00182647      -0.04661995
Mg       4.79032841      10.11661004       2.53003206      -0.03457667       0.01358155       0.00094457
Mg       7.96836962       8.29726861      -0.03475596       0.00271623      -0.04098027      -0.01524358
Mg       7.97279816      10.12168699       2.51835469      -0.00516894       0.00183864       0.00354572
Mg      15.92029102      -0.00211251       5.08983668       0.02469111      -0.01942413       0.01797015
Mg      -0.02377547       1.82765794       7.69625183       0.00504925      -0.02339988       0.00543702
Mg      -3.19684355      11.02644615       5.11102805      -0.02593235       0.02700017       0.00576337
Mg       3.16253726       1.82591382       7.68615205       0.01077897      -0.01566691       0.00201016
Mg      -0.02090715      11.02901600       5.10316940       0.02876384       0.03237586      -0.00221132
Mg       6.35599290       1.82560425       7.68977189       0.01108481       0.00624467      -0.05256351
Mg       3.18097073      11.02695767       5.10083347      -0.01904929       0.01821408      -0.02108976
Mg       9.54684027       1.81893152       7.66664284       0.00516509       0.01997836       0.00411360
Mg      12.73955302      -0.00643019       5.09458479       0.01230768      -0.00718209       0.02344452
Mg      12.74012694       1.82964763       7.66765849      -0.01104555      -0.02507017      -0.01877636
Mg      -1.60255783       2.75511915       5.12852290      -0.02456998      -0.00654969       0.00194074
Mg      -1.61502329       4.58319518       7.69470615       0.00184668       0.01312654      -0.00922193
Mg       1.58183624       2.74244304       5.12526296       0.00491281       0.01157626      -0.00665459
Mg       1.56946934       4.57327582       7.68768114       0.01065874       0.04172755      -0.00265106
Mg       4.76751038       2.75034645       5.11330120       0.01216353      -0.02584098      -0.00569802
Mg       4.75361850       4.57990332       7.67072258       0.02488756       0.02023449       0.01745679
Mg       7.96017649       2.75775580       5.09361947      -0.00736245      -0.03267410       0.03861995
Mg       7.95984678       4.58324486       7.66490291      -0.01770310      -0.00472246       0.01160731
Mg      11.14518500       2.75031888       5.09632201       0.01299268       0.00433776       0.01130559
Mg      11.14593668       4.58648524       7.65942840      -0.01571148      -0.00224426      -0.00113995
Mg      12.73542012       5.51542392       5.08171946       0.01669581      -0.00811438       0.02270417
Mg      -3.20277588       7.34628244       7.68743877      -0.01894302       0.00170612      -0.00546639
Mg      -0.01107166       5.50721460       5.11163955      -0.00889272       0.00848715       0.03146486
Mg      -0.01511034       7.34041865       7.68333889       0.00084366       0.00613708      -0.00811650
Mg       3.17818917       5.51146350       5.11211494      -0.01284491       0.00117047       0.00722067
Mg       3.17114563       7.35765616       7.67805703      -0.01606605      -0.03534128      -0.01693122
Mg       6.36427387       5.50269819       5.10310824      -0.00821342       0.03087172      -0.00676826
Mg       6.35759001       7.33958309       7.66185741       0.00939896      -0.00121687       0.00132597
Mg       9.54600058       5.52399324       5.10453224       0.01746266      -0.03239421      -0.02824026
Mg       9.54702861       7.34797109       7.65796616       0.00528305      -0.00098503       0.00417491
Mg      11.13811082       8.27852941       5.08118707       0.01001844      -0.01174157       0.00587075
Mg      -4.79986916      10.10120210       7.68595113      -0.01649674       0.02553909      -0.00141962
Mg      -1.61031286       8.28122559       5.12066427      -0.00193158      -0.03448660      -0.01014796
Mg      -1.61447238      10.11138731       7.67352734       0.01012783      -0.00542201       0.01719533
Mg       1.57217469       8.27348026       5.11131339       0.02855127      -0.01356347      -0.00637658
Mg       1.57549737      10.11203021       7.66085513      -0.01559208      -0.00990560       0.01979489
Mg       4.77502265       8.27455832       5.10556727      -0.01293514      -0.01211566      -0.01643101
Mg       4.76493321      10.09920913       7.66224105       0.02155695       0.03363957      -0.00858875
Mg       7.96268018       8.27313982       5.09017111      -0.01331218       0.00735215      -0.00273714
Mg       7.95587508      10.10730248       7.65492345      -0.00543513       0.00473794      -0.00277100
Mg      -0.02049859      -0.01862911      10.27421410      -0.01444707      -0.02868886      -0.01932618
Mg      -0.03155127       1.81357731      12.83920168      -0.00065118      -0.03105737      -0.01525125
Mg      -3.21343456      11.01661127      10.24046740       0.00804812       0.00359150      -0.00013345
Mg       3.16147070       1.80709638      12.81534207      -0.00652595       0.00662650       0.00255189
Mg       6.35330937      -0.01586025      10.24154128       0.00801774      -0.04640141       0.00993095
Mg       6.34844508       1.79767743      12.80794497      -0.01831176       0.04074090       0.00753883
Mg       3.16958913      11.01853447      10.21447942      -0.02123126       0.01271920       0.03907736
Mg       9.52844854       1.80624938      12.80825993       0.02474608       0.00437326      -0.01336318
Mg       6.35659942      11.01313568      10.22352177       0.00213799       0.01567028      -0.00717032
Mg      12.72675613       1.81627908      12.78952516      -0.01257452      -0.02478459       0.01512637
Mg      -1.61744583       2.73249078      10.26905174       0.00370843       0.00948405      -0.01079743
Mg      -1.61679824       4.56579461      12.82693847      -0.03181711       0.03881925       0.00700734
Mg       1.56679058       2.72942792      10.25982830       0.00941930       0.01466400      -0.00957581
Mg       1.55337897       4.56332929      12.80641345       0.02697786       0.02493494       0.03674488
Mg       4.76633786       2.73970956      10.23583871      -0.02347293      -0.00380112       0.03957868
Mg       4.74344937       4.57465473      12.81630529       0.01688548      -0.02246170      -0.02032381
Mg       7.95026245       2.74460758      10.24615141       0.01484653      -0.01873166      -0.01635491
Mg       7.94045311       4.57105688      12.80773187      -0.00084406      -0.00750963      -0.00880650
Mg      11.14607199       2.73352856      10.22887198      -0.03463531       0.00936982       0.01024602
Mg      11.12985737       4.57266031      12.80086072       0.00018217       0.00393563      -0.03803084
Mg      12.72364654       5.49559629      10.21611857       0.00909011      -0.00081728       0.02793275
Mg      -3.22096265       7.33845152      12.82690302       0.00849375      -0.02539505      -0.01080502
Mg      -0.02870726       5.49734189      10.25983570       0.00492103      -0.00627297      -0.02402680
Mg      -0.03115994       7.34326337      12.81074419      -0.00517103      -0.03364245       0.01033374
Mg       3.16398151       5.49700424      10.24552785       0.00380574      -0.00756319      -0.00830201
Mg       3.15892236       7.32614931      12.80765836      -0.00230448       0.02007801      -0.00459030
Mg       6.36227028       5.49579217      10.24234772      -0.03822505      -0.00033233      -0.02458556
Mg       6.35293014       7.32649178      12.79395867      -0.02421184       0.02145557       0.01890903
Mg       9.53630817       5.50232850      10.23020689       0.02109275      -0.02164948       0.00494093
Mg       9.53642225       7.34230885      12.79002229      -0.00982522      -0.02913845      -0.00004535
Mg      11.12920987       8.25392013      10.22282427       0.01660241       0.01465540      -0.02300486
Mg      -4.81261225      10.09248999      12.80965485      -0.00112808       0.01906653       0.02908336
Mg      -1.61967195       8.24527645      10.24198130      -0.00443978       0.04212857       0.01135809
Mg      -1.62828885      10.09362752      12.80482211       0.00434021      -0.00600898      -0.00011055
Mg       1.56914256       8.25834995      10.24346680       0.00606682       0.00636701      -0.00624905
Mg       1.55790809      10.09233181      12.80375641       0.01784285      -0.00303657      -0.02746948
Mg       4.76239214       8.25895777      10.22356687      -0.01009105      -0.00743697       0.03674581
Mg       4.75303877      10.09654709      12.78885903      -0.01058840      -0.01366024       0.00558594
Mg       7.94257614       8.25326182      10.21995339       0.01461590       0.01871469       0.00498859
Mg       7.93905028      10.08018610      12.79013071       0.00290139       0.05037977      -0.00748682
120
Lattice="15.9435 0.0 -0.03985875 -6.3774 11.04598082 -0.01167145 -0.038496 -0.038496 15.3984" Properties=species:S:1:pos:R:3:forces:R:3 energy=-180.46016165 stress="-0.0012694919608703358 0.0003498014780169235 -0.000711779328942259 0.0003498014780169235 0.0016771737242416264 -0.0007396225201490596 -0.000711779328942259 -0.0007396225201490596 -0.0009369030795434261" free_energy=-180.45910999 pbc="T T T"
Mg      -0.03172613      -0.03769088      15.39679859      -0.01057703      -0.00100695       0.01040029
Mg      -0.00214202       1.85241817       2.56635728      -0.02119181      -0.05662556      -0.01721614
Mg       3.15359497      -0.03302143      15.38913928      -0.01992098      -0.04942427      -0.02083298
Mg       3.17771988       1.82573597       2.54534120       0.02479919       0.00856734       0.03238656
Mg      -0.03954514      11.00478908      15.35774582      -0.00481222      -0.00609007       0.03368188
Mg       6.38890511       1.84002736       2.53197760      -0.05098801      -0.02267974       0.02879853
Mg       3.13857547      10.98943907      15.35680689       0.01724248       0.04457621       0.03019152
Mg       9.58214977       1.83269138       2.54845224      -0.03274426      -0.01643494      -0.04715667
Mg       6.31735552      11.00390685      15.34980602       0.03651064       0.03493316      -0.01547634
Mg      12.75235564       1.83606419       2.51360008       0.00571815       0.01260366       0.03785417
Mg      14.29161927       2.71601823      15.35242801       0.04507277       0.01282812       0.01799673
Mg      -1.59555392       4.59726048       2.55834325      -0.02587128      -0.01444299      -0.00912040
Mg       1.58895979       2.75600232       0.00660994       0.00898777       0.02385975      -0.06106081
Mg       1.58931501       4.57691248       2.55850984       0.02366093       0.05007637       0.01666617
Mg       4.73584315       2.72246435      15.37550124       0.02164548       0.00433689       0.00401257
Mg       4.76611815       4.59494618       2.54578288       0.02398517       0.00565312      -0.02557674
Mg       7.96563255       2.76553604      -0.02077427       0.01474806      -0.02466225      -0.01342671
Mg       7.95824229       4.59476319       2.53226028       0.02522677       0.01624360      -0.00693440
Mg      11.11622372       2.74552745      15.35782270      -0.00958175      -0.09058630       0.01253653
Mg      11.15567883       4.59596192       2.53684819      -0.02582568      -0.01237200      -0.00938798
Mg      12.74634720       5.50871983      -0.04150510       0.04737409       0.04767847      -0.00600233
Mg      -3.19362659       7.33408480       2.56924343      -0.01730040       0.07060010      -0.03852185
Mg       0.01659879       5.52763909       0.01128622      -0.05539074      -0.03164628      -0.06932311
Mg      -0.01582633       7.34726182       2.56566664       0.03291033       0.04611762      -0.01691237
Mg       3.16594770       5.53108310      -0.01412847       0.05392583      -0.03651164      -0.01154408
Mg       3.18137543       7.36440745       2.54382396      -0.02398042      -0.00360245       0.02338412
Mg       6.34594214       5.48070493      15.35907307      -0.03458413       0.03212151       0.04533025
Mg       6.36883628       7.37053057       2.53106487       0.01403522      -0.05356542       0.02057519
Mg       9.53427313       5.47866728      15.34792253      -0.03641305       0.02548039       0.02931419
Mg       9.55684491       7.32695749       2.49908048       0.00266154       0.06724956       0.05791291
Mg      11.10716565       8.23501264      15.34107140       0.06103967       0.04357472       0.04306285
Mg      -4.79256157      10.10702583       2.56989696      -0.00370000       0.01350892      -0.06216214
Mg      -1.58272751       8.27106052      -0.00478029      -0.04893835       0.02117282      -0.01414308