120
Lattice="15.9435 0.0 0.0797175 -6.3774 11.04598082 0.0233429 0.076992 0.076992 15.3984" Properties=species:S:1:pos:R:3:forces:R:3 energy=-180.49316035 stress="-0.0013083686484910166 0.0004643042847726467 0.0014499964547229525 0.0004643042847726467 0.0019364477110212993 0.0014876711774822076 0.0014499964547229525 0.0014876711774822076 -0.0010299998006312188" free_energy=-180.49288628 pbc="T T T"
Mg       0.00000000       0.00000000       0.00000000       0.00125934      -0.00108228       0.00028675
Mg       0.01283203       1.85382884       2.57560504      -0.00305325       0.00231839      -0.00036668
Mg       3.18870000       0.00000000       0.01594350       0.00006511      -0.00106524       0.00201883
Mg       3.20153203       1.85382884       2.59154854       0.00346776       0.00304377      -0.00116467
Mg       6.37740000       0.00000000       0.03188700       0.00379653      -0.00915660      -0.00081678
Mg       6.39023203       1.85382884       2.60749204      -0.00342024      -0.00085546       0.00103586
Mg       9.56610000       0.00000000       0.04783050      -0.00143489       0.00700108       0.00150523
Mg       9.57893203       1.85382884       2.62343554      -0.00088459       0.00298547      -0.00370128
Mg      12.75480000       0.00000000       0.06377400       0.00242173      -0.00101840      -0.00143119
Mg      12.76763203       1.85382884       2.63937904      -0.00062480       0.00308094       0.00095395
Mg      -1.59435000       2.76149521       0.00583572       0.00126028      -0.00108193       0.00028432
Mg      -1.58151797       4.61532405       2.58144076      -0.00305285       0.00231818      -0.00036848
Mg       1.59435000       2.76149521       0.02177922       0.00006431      -0.00106567       0.00201986
Mg       1.60718203       4.61532405       2.59738426       0.00346672       0.00304546      -0.00116363
Mg       4.78305000       2.76149521       0.03772272       0.00379587      -0.00915682      -0.00081785
Mg       4.79588203       4.61532405       2.61332776      -0.00342238      -0.00085385       0.00103489
Mg       7.97175000       2.76149521       0.05366622      -0.00143477       0.00700033       0.00150668
Mg       7.98458203       4.61532405       2.62927126      -0.00088624       0.00298488      -0.00370282
Mg      11.16045000       2.76149521       0.06960972       0.00242215      -0.00101868      -0.00143031
Mg      11.17328203       4.61532405       2.64521476      -0.00062403       0.00308116       0.00095360
Mg      -3.18870000       5.52299041       0.01167145       0.00126126      -0.00108148       0.00028492
Mg      -3.17586797       7.37681925       2.58727649      -0.00305138       0.00231791      -0.00036709
Mg       0.00000000       5.52299041       0.02761495       0.00006397      -0.00106507       0.00201728
Mg       0.01283203       7.37681925       2.60321999       0.00346749       0.00304375      -0.00116494
Mg       3.18870000       5.52299041       0.04355845       0.00379700      -0.00915650      -0.00081723
Mg       3.20153203       7.37681925       2.61916349      -0.00342156      -0.00085475       0.00103597
Mg       6.37740000       5.52299041       0.05950195      -0.00143473       0.00700083       0.00150682
Mg       6.39023203       7.37681925       2.63510699      -0.00088722       0.00298562      -0.00370183
Mg       9.56610000       5.52299041       0.07544545       0.00242184      -0.00101987      -0.00143092
Mg       9.57893203       7.37681925       2.65105049      -0.00062448       0.00308207       0.00095335
Mg      -4.78305000       8.28448562       0.01750717       0.00125918      -0.00108269       0.00028582
Mg      -4.77021797      10.13831446       2.59311221      -0.00305081       0.00231844      -0.00036648
Mg      -1.59435000       8.28448562       0.03345067       0.00006411      -0.00106557       0.00201842
Mg      -1.58151797      10.13831446       2.60905571       0.00346856       0.00304232      -0.00116445
Mg       1.59435000       8.28448562       0.04939417       0.00379648      -0.00915596      -0.00081841
Mg       1.60718203      10.13831446       2.62499921      -0.00342086      -0.00085459       0.00103615
Mg       4.78305000       8.28448562       0.06533767      -0.00143475       0.00700300       0.00150548
Mg       4.79588203      10.13831446       2.64094271      -0.00088664       0.00298462      -0.00370223
Mg       7.97175000       8.28448562       0.08128117       0.00242172      -0.00101910      -0.00142895
Mg       7.98458203      10.13831446       2.65688621      -0.00062482       0.00308158       0.00095396
Mg       0.02566400       0.02566400       5.13279995       0.00125974      -0.00108100       0.00029573
Mg       0.03849603       1.87949284       7.70840498      -0.00305199       0.00231684      -0.00036411
Mg       3.21436400       0.02566400       5.14874345       0.00006331      -0.00106376       0.00202688
Mg       3.22719603       1.87949284       7.72434848       0.00346810       0.00304221      -0.00116280
Mg       6.40306400       0.02566400       5.16468695       0.00379540      -0.00915710      -0.00080772
Mg       6.41589603       1.87949284       7.74029198      -0.00342167      -0.00085443       0.00103863
Mg       9.59176400       0.02566400       5.18063045      -0.00143463       0.00700122       0.00151603
Mg       9.60459603       1.87949284       7.75623548      -0.00088454       0.00298528      -0.00369989
Mg      12.78046400       0.02566400       5.19657395       0.00242297      -0.00101794      -0.00142148
Mg      12.79329603       1.87949284       7.77217898      -0.00062570       0.00308007       0.00095749
Mg      -1.56868600       2.78715920       5.13863567       0.00126078      -0.00108259       0.00029734
Mg      -1.55585397       4.64098805       7.71424071      -0.00305172       0.00231858      -0.00036446
Mg       1.62001400       2.78715920       5.15457917       0.00006226      -0.00106483       0.00202728
Mg       1.63284603       4.64098805       7.73018421       0.00346772       0.00304300      -0.00116103
Mg       4.80871400       2.78715920       5.17052267       0.00379593      -0.00915573      -0.00080723
Mg       4.82154603       4.64098805       7.74612771      -0.00342066      -0.00085573       0.00103998
Mg       7.99741400       2.78715920       5.18646617      -0.00143343       0.00700234       0.00151587
Mg       8.01024603       4.64098805       7.76207121      -0.00088487       0.00298618      -0.00369843
Mg      11.18611400       2.78715920       5.20240967       0.00242339      -0.00101893      -0.00142172
Mg      11.19894603       4.64098805       7.77801471      -0.00062500       0.00308196       0.00095569
Mg      -3.16303600       5.54865441       5.14447140       0.00126046      -0.00108098       0.00029511
Mg      -3.15020397       7.40248325       7.72007643      -0.00305295       0.00231710      -0.00036391
Mg       0.02566400       5.54865441       5.16041490       0.00006332      -0.00106408       0.00202860
Mg       0.03849603       7.40248325       7.73601993       0.00346715       0.00304259      -0.00116185
Mg       3.21436400       5.54865441       5.17635840       0.00379489      -0.00915638      -0.00080765
Mg       3.22719603       7.40248325       7.75196343      -0.00342107      -0.00085640       0.00103756
Mg       6.40306400       5.54865441       5.19230190      -0.00143452       0.00700099       0.00151743
Mg       6.41589603       7.40248325       7.76790693      -0.00088367       0.00298540      -0.00369743
Mg       9.59176400       5.54865441       5.20824540       0.00242368      -0.00101541      -0.00142114
Mg       9.60459603       7.40248325       7.78385043      -0.00062395       0.00308218       0.00095753
Mg      -4.75738600       8.31014961       5.15030712       0.00125984      -0.00108159       0.00029456
Mg      -4.74455397      10.16397846       7.72591216      -0.00305226       0.00231853      -0.00036470
Mg      -1.56868600       8.31014961       5.16625062       0.00006245      -0.00106476       0.00202785
Mg      -1.55585397      10.16397846       7.74185566       0.00346580       0.00304229      -0.00116262
Mg       1.62001400       8.31014961       5.18219412       0.00379494      -0.00915537      -0.00080816
Mg       1.63284603      10.16397846       7.75779916      -0.00342101      -0.00085584       0.00103870
Mg       4.80871400       8.31014961       5.19813762      -0.00143304       0.00700096       0.00151622
Mg       4.82154603      10.16397846       7.77374266      -0.00088455       0.00298513      -0.00370022
Mg       7.99741400       8.31014961       5.21408112       0.00242220      -0.00101696      -0.00142024
Mg       8.01024603      10.16397846       7.78968616      -0.00062387       0.00308054       0.00095774
Mg       0.05132800       0.05132800      10.26560005       0.00125998      -0.00107999       0.00028725
Mg       0.06416003       1.90515684      12.84120493      -0.00305112       0.00231860      -0.00037524
Mg       3.24002800       0.05132800      10.28154355       0.00006402      -0.00106308       0.00202015
Mg       3.25286003       1.90515684      12.85714843       0.00346648       0.00304397      -0.00117189
Mg       6.42872800       0.05132800      10.29748705       0.00379517      -0.00915610      -0.00081546
Mg       6.44156003       1.90515684      12.87309193      -0.00342111      -0.00085460       0.00103059
Mg       9.61742800       0.05132800      10.31343055      -0.00143397       0.00700130       0.00151048
Mg       9.63026003       1.90515684      12.88903543      -0.00088526       0.00298429      -0.00370805
Mg      12.80612800       0.05132800      10.32937405       0.00242258      -0.00101849      -0.00142863
Mg      12.81896003       1.90515684      12.90497893      -0.00062614       0.00308115       0.00094815
Mg      -1.54302200       2.81282321      10.27143578       0.00126215      -0.00108033       0.00028704
Mg      -1.53018997       4.66665204      12.84704066      -0.00305219       0.00231982      -0.00037529
Mg       1.64567800       2.81282321      10.28737928       0.00006474      -0.00106322       0.00201967
Mg       1.65851003       4.66665204      12.86298416       0.00346844       0.00304369      -0.00117136
Mg       4.83437800       2.81282321      10.30332278       0.00379420      -0.00915634      -0.00081361
Mg       4.84721003       4.66665204      12.87892766      -0.00342018      -0.00085540       0.00103002
Mg       8.02307800       2.81282321      10.31926628      -0.00143531       0.00700147       0.00151160
Mg       8.03591003       4.66665204      12.89487116      -0.00088626       0.00298569      -0.00370818
Mg      11.21177800       2.81282321      10.33520978       0.00242251      -0.00101760      -0.00142834
Mg      11.22461003       4.66665204      12.91081466      -0.00062585       0.00308241       0.00094742
Mg      -3.13737200       5.57431841      10.27727150       0.00126235      -0.00107915       0.00028770
Mg      -3.12453997       7.42814725      12.85287638      -0.00305229       0.00231843      -0.00037464
Mg       0.05132800       5.57431841      10.29321500       0.00006395      -0.00106497       0.00202041
Mg       0.06416003       7.42814725      12.86881988       0.00346676       0.00304344      -0.00117284
Mg       3.24002800       5.57431841      10.30915850       0.00379535      -0.00915656      -0.00081531
Mg       3.25286003       7.42814725      12.88476338      -0.00341982      -0.00085511       0.00103032
Mg       6.42872800       5.57431841      10.32510200      -0.00143523       0.00700131       0.00151098
Mg       6.44156003       7.42814725      12.90070688      -0.00088709       0.00298424      -0.00370839
Mg       9.61742800       5.57431841      10.34104550       0.00242253      -0.00101683      -0.00142687
Mg       9.63026003       7.42814725      12.91665038      -0.00062730       0.00308113       0.00094603
Mg      -4.73172200       8.33581362      10.28310723       0.00126094      -0.00108082       0.00028612
Mg      -4.71888997      10.18964245      12.85871211      -0.00305146       0.00231841      -0.00037566
Mg      -1.54302200       8.33581362      10.29905073       0.00006423      -0.00106352       0.00202010
Mg      -1.53018997      10.18964245      12.87465561       0.00346730       0.00304309      -0.00117067
Mg       1.64567800       8.33581362      10.31499423       0.00379518      -0.00915723      -0.00081469
Mg       1.65851003      10.18964245      12.89059911      -0.00342103      -0.00085499       0.00102982
Mg       4.83437800       8.33581362      10.33093773      -0.00143453       0.00700136       0.00151002
Mg       4.84721003      10.18964245      12.90654261      -0.00088609       0.00298496      -0.00370741
Mg       8.02307800       8.33581362      10.34688123       0.00242209      -0.00101953      -0.00142902
Mg       8.03591003      10.18964245      12.92248611      -0.00062583       0.00308029       0.00094737
120
Lattice="15.9435 0.0 0.0797175 -6.3774 11.04598082 0.0233429 0.076992 0.076992 15.3984" Properties=species:S:1:pos:R:3:forces:R:3 energy=-180.47607128 stress="-0.0013273779197564984 0.00046723736963919134 0.0014485440181003046 0.00046723736963919134 0.0018747542568060924 0.0014962561236244948 0.0014485440181003046 0.0014962561236244948 -0.0010361216350611225" free_energy=-180.47578925 pbc="T T T"
Mg      15.94277723       0.00129396       0.08593515      -0.00131489      -0.00584681      -0.01282508
Mg       0.00635507       1.84654873       2.57243563       0.00579199       0.02489179       0.00282279
Mg      -3.10655433      11.12036507      15.43544199      -0.00836954       0.00903247       0.00982742
Mg       3.19717197       1.84809129       2.59232829       0.00001712       0.01326133       0.00485167
Mg       0.07405001      11.11604721      15.44529648       0.01155960       0.02182367       0.02636620
Mg       6.38962743       1.85632612       2.61868110      -0.00967578       0.00012327      -0.03430498
Mg       9.56767202       0.00111201       0.05157969      -0.00720197       0.00685421      -0.00795369
Mg       9.57072759       1.86283387       2.62050352       0.01298152      -0.02706228       0.01290213
Mg       6.45384692      11.11373441      15.48374591       0.01116350       0.00998639      -0.00287034
Mg      12.76433183       1.85186907       2.63003163       0.00987670       0.01220514       0.01791167
Mg      14.42615900       2.83809282      15.48367849      -0.00243113      -0.00434875      -0.00500457
Mg      -1.57493916       4.62873714       2.57903737      -0.01935211      -0.04126798       0.02051054
Mg       1.67253154       2.84217087      15.41970609       0.00069532      -0.01615079       0.02333157
Mg       1.60929395       4.61569744       2.60359008      -0.00371392      -0.01985382      -0.00955978
Mg       4.78211083       2.76275171       0.04683032       0.00468606      -0.00831015      -0.01985646
Mg       4.79025910       4.62478680       2.60881667       0.01186145      -0.02126994       0.01209387
Mg       7.96553893       2.77078485       0.05829413       0.00152474      -0.02595805       0.00066436
Mg       7.98888540       4.62004299       2.63355611      -0.02703686       0.00615117      -0.00314600
Mg      11.23372418       2.83419535      15.46177459       0.01467537       0.00477009       0.00536758
Mg      11.16864731       4.61225761       2.64153903       0.02603160       0.00761530      -0.00512685
Mg      12.82983031       5.59367746      15.48581198       0.00150150       0.00997208       0.01346404
Mg      -3.17897055       7.36911927       2.59107804       0.01193236       0.01614917      -0.01032442
Mg       0.08208409       5.59800950      15.42433219      -0.01362952       0.01387924       0.01345424
Mg       0.02481500       7.36537658       2.61006478      -0.03871072       0.04026163      -0.02275914
Mg       3.26345692       5.59993250      15.43799569       0.01099236      -0.00146438       0.01284424
Mg       3.19128506       7.37544558       2.61791422       0.02904445       0.00748204       0.01042461
Mg       6.38016941       5.52223464       0.06269271      -0.00803509       0.01646909      -0.01004019
Mg       6.38428669       7.37939814       2.63265794       0.01090555      -0.00962358       0.00678514
Mg       9.64186446       5.58969419      15.47014387       0.00976488       0.02438652       0.00095053
Mg       9.57701612       7.36757400       2.64596058       0.00101295       0.02153312       0.01104123
Mg      11.16020017       8.28352436       0.10136474       0.00256259      -0.01375326      -0.01586901
Mg      -4.77066557      10.12970804       2.58598726      -0.00699910       0.01699055       0.02100361
Mg      -1.52079667       8.36396170      15.43017942       0.01334157      -0.02035654       0.01859868
Mg      -1.58599480      10.13845189       2.61524680       0.02391749      -0.00765708      -0.01332027
Mg       1.59441848       8.29080532       0.05368310      -0.00251844      -0.02915162      -0.02080708
Mg       1.61166386      10.13736980       2.61262273      -0.02723962       0.00558887       0.04451564
Mg       4.85818959       8.35904423      15.46279793       0.00270459       0.00407168      -0.00204265
Mg       4.79872227      10.13815578       2.64030541      -0.01911538       0.00784583       0.00272283
Mg       8.05393399       8.35870374      15.47379243      -0.01019185       0.00238121       0.00773467
Mg       7.97721807      10.13096713       2.66600550       0.01848775       0.01144713      -0.03072800
Mg      15.96439335       0.02940165       5.20834091       0.01932400      -0.01660939       0.01061924
Mg       0.04171834       1.87637601       7.71052854      -0.00338940       0.01456787      -0.00493141
Mg      -3.16047927      11.07166786       5.17710563      -0.01592237      -0.00311152      -0.01740554
Mg       3.22830551       1.87083162       7.71744877      -0.00949886       0.03487086       0.01401706
Mg       6.40217125       0.04227916       5.16801600       0.01827566      -0.04713625      -0.01283030
Mg       6.40962059       1.87742478       7.73997865       0.02090373       0.01395385       0.00767310
Mg       3.21219037      11.05960279       5.20747483       0.00056637       0.04308419      -0.01896200
Mg       9.60131411       1.87773273       7.75286575       0.01751013       0.01605013       0.01667545
Mg       6.40985774      11.06590186       5.22163601      -0.02428759       0.02471481      -0.00458947
Mg      12.80055280       1.87758953       7.76434588      -0.03033181       0.00701707       0.00974510
Mg      -1.56169450       2.78959685       5.14149258      -0.02379377       0.01380277      -0.01634698
Mg      -1.56263421       4.64976821       7.72492927       0.03155725      -0.02082965      -0.03252358
Mg       1.61316809       2.78407852       5.15840251       0.01600745       0.00268016      -0.01656317
Mg       1.63832369       4.64462829       7.72557756      -0.01233664      -0.01418845       0.02708136
Mg       4.80812298       2.78635083       5.17146001      -0.01507407      -0.00078209      -0.01881910
Mg       4.82345667       4.63617193       7.73211566      -0.01523352       0.01828752       0.04650260
Mg       7.99098242       2.80002835       5.18888915       0.02512897      -0.03376358       0.01041059
Mg       8.00979312       4.64636512       7.76991706       0.00647120      -0.01731535      -0.00923591
Mg      11.18441603       2.78883798       5.18866966       0.01339588      -0.02395198       0.03261510
Mg      11.20488299       4.64773443       7.77408922      -0.02132710      -0.02897792       0.01358061
Mg      12.77350796       5.55498354       5.23224904       0.03344503      -0.02502447      -0.03282905
Mg      -3.14437808       7.39635489       7.71105191      -0.01365089       0.03715881       0.03041635
Mg       0.03290552       5.55608095       5.16908119      -0.03191519      -0.02969041      -0.00883024
Mg       0.04772737       7.40286703       7.73433116      -0.02825676       0.01284988       0.02428761
Mg       3.21428210       5.54442865       5.17728443       0.00721953       0.01179096      -0.00743733
Mg       3.21859892       7.41156403       7.74917980       0.03298945      -0.02890945      -0.00106195
Mg       6.39730506       5.53750531       5.19560638       0.01692515       0.05355951      -0.01170847
Mg       6.42192152       7.40352676       7.77236017      -0.03039177      -0.00503180      -0.02747335
Mg       9.59982169       5.54215109       5.20730360      -0.02634515       0.02526686       0.00550545
Mg       9.59798791       7.39907125       7.77960094       0.02403296       0.01228425      -0.00531904
Mg      -4.75236361       8.31229222       5.15008103      -0.01562385      -0.00005051      -0.00379670
Mg      -4.74789970      10.16301876       7.72160085       0.00178904      -0.00862224       0.00910154
Mg      -1.56296599       8.31209861       5.16726872      -0.00866606       0.00319343      -0.00477263
Mg      -1.55431573      10.17156342       7.74208189       0.00338341      -0.02962715       0.00243403
Mg       1.61041990       8.30592315       5.18637862       0.02995343       0.02774106      -0.02078292
Mg       1.63996990      10.16682294       7.75931378      -0.02698915      -0.00147164       0.00169975
Mg       4.80796830       8.31142935       5.19779800       0.00214455      -0.01526594       0.00101323
Mg       4.82111513      10.15782661       7.77446007       0.00226694       0.02479582      -0.00212518
Mg       8.00224325       8.31349295       5.21490557      -0.00390153      -0.03282646      -0.00464950
Mg       8.00848319      10.16269632       7.79384046       0.00808081       0.00877620      -0.00255332
Mg      15.99443182       0.05155808      10.34920277       0.00216349      -0.00420446      -0.00655384
Mg       0.07735563       1.90960825      12.84471575      -0.05242608      -0.01072505      -0.00781236
Mg       3.23792381       0.06106073      10.27528714      -0.00052983      -0.02965832       0.01839407
Mg       3.24202812       1.90193747      12.86153625       0.04917955       0.02605937      -0.01140989
Mg       6.43478874       0.05626890      10.29507536      -0.01215744      -0.02200189       0.00624284
Mg       6.44493703       1.90603624      12.88102806      -0.02844192       0.00971529      -0.01085360
Mg       3.23666865      11.09417052      10.34707400       0.00921219       0.02779396      -0.02695081
Mg       9.62874243       1.90336653      12.90117301      -0.00079048       0.01755955      -0.02752331
Mg       6.41731079      11.09313037      10.35341594       0.03114029       0.01688806      -0.00607524
Mg      12.81357200       1.89848860      12.90379170       0.03417972       0.02249687      -0.00700070
Mg      -1.53297852       2.81712771      10.25789786      -0.01328057      -0.02721611       0.05068511
Mg      -1.53304213       4.66782547      12.85154146      -0.00026961      -0.02382605      -0.01447674
Mg       1.64635725       2.81538792      10.28698684       0.00786535       0.00937557      -0.00606418
Mg       1.65468032       4.66601869      12.87122914       0.02139672       0.00320599      -0.02747608
Mg       4.83108421       2.81897422      10.29798161       0.00081170      -0.00673974       0.02295858
Mg       4.85585574       4.68032429      12.88040271      -0.02076765      -0.04101398      -0.00338290
Mg       8.01068593       2.80899103      10.32890706       0.04119456       0.01588312      -0.01884893
Mg       8.04202283       4.67520904      12.89379692      -0.01925945      -0.01872646       0.00275356
Mg      11.22502332       2.81962790      10.33927122      -0.03881831      -0.02604909      -0.02467582
Mg      11.21879477       4.67179258      12.90300530       0.01834615      -0.01511186       0.01572421
Mg      -3.13211653       5.56894679      10.28222788      -0.00738240       0.02911847      -0.00439209
Mg      -3.11363258       7.42608841      12.85935345      -0.03554498       0.01492665      -0.02041148
Mg       0.05274572       5.58162318      10.29654046       0.00691393      -0.02009005      -0.00448332
Mg       0.06476316       7.41719703      12.86799318       0.00799402       0.04379739       0.00735010
Mg       3.24089239       5.58482260      10.31361429       0.00614184      -0.03953801      -0.01813426
Mg       3.25255880       7.42565216      12.88701994      -0.00553854       0.01214262       0.00093649
Mg       6.43066715       5.57889241      10.32546023      -0.01547718      -0.01727801      -0.00659767
Mg       6.44183794       7.42935427      12.89351776      -0.00071484       0.01119597       0.01617755
Mg       9.61780423       5.57510794      10.33704579       0.00391546      -0.01616789      -0.00440244
Mg       9.63099160       7.42481879      12.91120773       0.00932754       0.01810956       0.00425224
Mg      11.20393153       8.33036063      10.35597157       0.02939784       0.01742778       0.01462372
Mg      -4.71513063      10.18941930      12.86926238      -0.00278776      -0.01201444      -0.03233987
Mg      -1.54448148       8.33727207      10.29806712       0.00065248       0.00305983      -0.00735022
Mg      -1.52900492      10.19207880      12.86633266       0.00306360      -0.00520704       0.00175326
Mg       1.65431516       8.33159665      10.31677412      -0.02892131       0.01455464       0.00210940
Mg       1.66357493      10.18813046      12.88983898      -0.02295479      -0.00835588       0.00460952
Mg       4.83047718       8.33364123      10.32627452       0.00533739       0.00905490       0.01102899
Mg       4.84568853      10.19031450      12.90426490       0.00494151      -0.01177754       0.01110342
Mg       8.01497992       8.33077781      10.33951462       0.02547967       0.01721699       0.02008524
Mg       8.04145116      10.18732850      12.91674923      -0.00900895       0.01004478       0.01158670
120
Lattice="15.9435 0.0 0.0797175 -6.3774 11.04598082 0.0233429 0.076992 0.076992 15.3984" Properties=species:S:1:pos:R:3:forces:R:3 energy=-180.42560874 stress="-0.0013631200715620879 0.00045828775084320595 0.0014552729578813737 0.00045828775084320595 0.0018044605772342575 0.0014992714341322637 0.0014552729578813737 0.0014992714341322637 -0.0010946547947530757" free_energy=-180.42531138 pbc="T T T"
Mg      15.94205400       0.00258536       0.09214770      -0.00479395      -0.01294290      -0.02514454
Mg      -0.00011945       1.83927823       2.56926751       0.01657366       0.04703382       0.00928659
Mg      -3.10140398      11.11776064      15.43320159      -0.01719011       0.01695936       0.01992820
Mg       3.19281176       1.84235872       2.59310991      -0.00094950       0.02651909       0.01254114
Mg       0.07111247      11.10913005      15.43697345       0.02059037       0.04961250       0.05712095
Mg       6.38901899       1.85882323       2.62985660      -0.01512460      -0.00051558      -0.06929620
Mg       9.56924103       0.00222644       0.05532596      -0.00941538       0.00792994      -0.01494884
Mg       9.56252821       1.87182798       2.61757671       0.02298225      -0.05620332       0.02845729
Mg       6.45330643      11.10449964      15.48197373       0.02123655       0.02240017      -0.00345081
Mg      12.76103553       1.84991397       2.62069150       0.01554306       0.01763377       0.03792813
Mg      14.42617507       2.83769645      15.48340190      -0.00541302      -0.00824401      -0.01035732
Mg      -1.56836805       4.64213361       2.57664218      -0.03819595      -0.08151854       0.03831935
Mg       1.67372120       2.84584785      15.41924232      -0.00052214      -0.03189502       0.04612377
Mg       1.61140428       4.61606275       2.60979230      -0.01023167      -0.04328740      -0.01879611
Mg       4.78117344       2.76400475       0.05593005       0.00073910      -0.00830954      -0.04356330
Mg       4.78464084       4.63424096       2.60431048       0.02261476      -0.04502467       0.02626661
Mg       7.95932818       2.78006401       0.06292230       0.00895635      -0.05689054      -0.00206289
Mg       7.99317808       4.62476414       2.63783999      -0.05485755       0.00297035      -0.00385164
Mg      11.23001205       2.82990528      15.45554150       0.02584294       0.01000501       0.01493008
Mg      11.16402294       4.60919393       2.63786136       0.05197195       0.01191001      -0.01162790
Mg      12.82786902       5.58737629      15.48184043       0.00143828       0.01970928       0.02889761
Mg      -3.18206844       7.36142545       2.59487580       0.02802726       0.03187123      -0.02104843
Mg       0.08717059       5.59604192      15.42265481      -0.02847611       0.02675606       0.02676635
Mg       0.03678259       7.35394966       2.61690064      -0.08362746       0.07907335      -0.04808662
Mg       3.26122599       5.59988184      15.43403817       0.01682007       0.00293950       0.02339315
Mg       3.18104948       7.37407458       2.61666918       0.06220218       0.01815209       0.01876901
Mg       6.38293571       5.52148504       0.06587948      -0.01235380       0.02646127      -0.01643968
Mg       6.37834541       7.38197308       2.63021183       0.02131281      -0.01829465       0.02021938
Mg       9.64064098       5.57941525      15.46644266       0.01739380       0.04921049       0.00524569
Mg       9.57510071       7.35833705       2.64087503      -0.00358089       0.04424126       0.02591379
Mg      11.15995133       8.28255744       0.10549878       0.00424032      -0.02988053      -0.02792245
Mg      -4.77111594      10.12110818       2.57887080      -0.00878598       0.02688047       0.04510033
Mg      -1.52423021       8.36643753      15.42851569       0.02979775      -0.03908358       0.03926134
Mg      -1.59046193      10.13858599       2.62143269       0.04363556      -0.01901897      -0.02478559