120
Lattice="15.9435 0.0 0.0 -6.3774 11.04598082 0.0 0.0 0.0 15.475392" Properties=species:S:1:pos:R:3:forces:R:3 energy=-180.57736635 stress="-0.0005548817205659228 0.00015788591389736498 -1.1640414519772277e-08 0.00015788591389736498 0.0023313090463989877 1.81565500471944e-08 -1.1640414519772277e-08 1.81565500471944e-08 0.001391421776512294" free_energy=-180.57627271 pbc="T T T"
Mg       0.00000000       0.00000000       0.00000000      -0.00011403      -0.00130158       0.00000340
Mg       0.00000003       1.84099684       2.57923205      -0.00100922       0.00354337       0.00000834
Mg       3.18870000       0.00000000       0.00000000      -0.00183281      -0.00212539       0.00000534
Mg       3.18870003       1.84099684       2.57923205       0.00207208       0.00038674       0.00000418
Mg       6.37740000       0.00000000       0.00000000       0.00048530      -0.00487830       0.00000458
Mg       6.37740003       1.84099684       2.57923205      -0.00347491       0.00117630       0.00000387
Mg       9.56610000       0.00000000       0.00000000      -0.00072936       0.00247272       0.00000486
Mg       9.56610003       1.84099684       2.57923205       0.00027424       0.00330696       0.00000793
Mg      12.75480000       0.00000000       0.00000000       0.00171871      -0.00027630       0.00000263
Mg      12.75480003       1.84099684       2.57923205       0.00298390       0.00319419       0.00001074
Mg      -1.59435000       2.76149521       0.00000000      -0.00011168      -0.00130328       0.00000284
Mg      -1.59434997       4.60249205       2.57923205      -0.00100686       0.00354140       0.00000681
Mg       1.59435000       2.76149521       0.00000000      -0.00183489      -0.00212474       0.00000421
Mg       1.59435003       4.60249205       2.57923205       0.00207212       0.00038815       0.00000318
Mg       4.78305000       2.76149521       0.00000000       0.00048091      -0.00487507       0.00000353
Mg       4.78305003       4.60249205       2.57923205      -0.00347506       0.00117760       0.00000671
Mg       7.97175000       2.76149521       0.00000000      -0.00073028       0.00247235       0.00000266
Mg       7.97175003       4.60249205       2.57923205       0.00027714       0.00330447       0.00000460
Mg      11.16045000       2.76149521       0.00000000       0.00172238      -0.00027747       0.00000385
Mg      11.16045003       4.60249205       2.57923205       0.00298329       0.00319340       0.00000892
Mg      -3.18870000       5.52299041       0.00000000      -0.00011621      -0.00130387       0.00000300
Mg      -3.18869997       7.36398725       2.57923205      -0.00100310       0.00354184       0.00000781
Mg       0.00000000       5.52299041       0.00000000      -0.00183345      -0.00212514       0.00000197
Mg       0.00000003       7.36398725       2.57923205       0.00207562       0.00038532       0.00000647
Mg       3.18870000       5.52299041       0.00000000       0.00048386      -0.00487383       0.00000461
Mg       3.18870003       7.36398725       2.57923205      -0.00347481       0.00117742       0.00000358
Mg       6.37740000       5.52299041       0.00000000      -0.00072784       0.00247339       0.00000197
Mg       6.37740003       7.36398725       2.57923205       0.00027412       0.00330516       0.00000547
Mg       9.56610000       5.52299041       0.00000000       0.00172152      -0.00027918       0.00000393
Mg       9.56610003       7.36398725       2.57923205       0.00298222       0.00319187       0.00000962
Mg      -4.78305000       8.28448562       0.00000000      -0.00011727      -0.00130298       0.00000327
Mg      -4.78304997      10.12548246       2.57923205      -0.00100514       0.00354298       0.00000870
Mg      -1.59435000       8.28448562       0.00000000      -0.00183110      -0.00212641       0.00000314
Mg      -1.59434997      10.12548246       2.57923205       0.00207352       0.00038676       0.00000519
Mg       1.59435000       8.28448562       0.00000000       0.00048442      -0.00487697       0.00000400
Mg       1.59435003      10.12548246       2.57923205      -0.00347665       0.00117674       0.00000454
Mg       4.78305000       8.28448562       0.00000000      -0.00072972       0.00247563       0.00000387
Mg       4.78305003      10.12548246       2.57923205       0.00027498       0.00330586       0.00000536
Mg       7.97175000       8.28448562       0.00000000       0.00171970      -0.00027628       0.00000444
Mg       7.97175003      10.12548246       2.57923205       0.00298287       0.00319463       0.00000975
Mg       0.00000000       0.00000000       5.15846395      -0.00011610      -0.00130425       0.00000490
Mg       0.00000003       1.84099684       7.73769600      -0.00100867       0.00354156      -0.00000454
Mg       3.18870000       0.00000000       5.15846395      -0.00183602      -0.00212410       0.00000235
Mg       3.18870003       1.84099684       7.73769600       0.00207224       0.00038385      -0.00000136
Mg       6.37740000       0.00000000       5.15846395       0.00048481      -0.00487479       0.00000077
Mg       6.37740003       1.84099684       7.73769600      -0.00347295       0.00117592      -0.00000080
Mg       9.56610000       0.00000000       5.15846395      -0.00072275       0.00247670       0.00000306
Mg       9.56610003       1.84099684       7.73769600       0.00027986       0.00330528      -0.00000534
Mg      12.75480000       0.00000000       5.15846395       0.00172250      -0.00027442       0.00000463
Mg      12.75480003       1.84099684       7.73769600       0.00298680       0.00319277      -0.00000383
Mg      -1.59435000       2.76149521       5.15846395      -0.00011708      -0.00130287       0.00000392
Mg      -1.59434997       4.60249205       7.73769600      -0.00100710       0.00353988      -0.00000423
Mg       1.59435000       2.76149521       5.15846395      -0.00183734      -0.00212739       0.00000317
Mg       1.59435003       4.60249205       7.73769600       0.00207152       0.00038208      -0.00000181
Mg       4.78305000       2.76149521       5.15846395       0.00048191      -0.00487721       0.00000032
Mg       4.78305003       4.60249205       7.73769600      -0.00347447       0.00117638      -0.00000234
Mg       7.97175000       2.76149521       5.15846395      -0.00072637       0.00247789       0.00000351
Mg       7.97175003       4.60249205       7.73769600       0.00027618       0.00330456      -0.00000518
Mg      11.16045000       2.76149521       5.15846395       0.00172368      -0.00027645       0.00000435
Mg      11.16045003       4.60249205       7.73769600       0.00298695       0.00319175      -0.00000448
Mg      -3.18870000       5.52299041       5.15846395      -0.00011571      -0.00130300       0.00000431
Mg      -3.18869997       7.36398725       7.73769600      -0.00100605       0.00353960      -0.00000450
Mg       0.00000000       5.52299041       5.15846395      -0.00183641      -0.00212769       0.00000014
Mg       0.00000003       7.36398725       7.73769600       0.00207217       0.00038233      -0.00000191
Mg       3.18870000       5.52299041       5.15846395       0.00048240      -0.00487402       0.00000243
Mg       3.18870003       7.36398725       7.73769600      -0.00347511       0.00117512       0.00000023
Mg       6.37740000       5.52299041       5.15846395      -0.00072318       0.00247733       0.00000188
Mg       6.37740003       7.36398725       7.73769600       0.00027699       0.00331002      -0.00000364
Mg       9.56610000       5.52299041       5.15846395       0.00172365      -0.00027510       0.00000544
Mg       9.56610003       7.36398725       7.73769600       0.00298582       0.00319203      -0.00000503
Mg      -4.78305000       8.28448562       5.15846395      -0.00011660      -0.00130467       0.00000401
Mg      -4.78304997      10.12548246       7.73769600      -0.00100536       0.00354267      -0.00000582
Mg      -1.59435000       8.28448562       5.15846395      -0.00183715      -0.00212344       0.00000124
Mg      -1.59434997      10.12548246       7.73769600       0.00207272       0.00038509      -0.00000255
Mg       1.59435000       8.28448562       5.15846395       0.00048036      -0.00487504       0.00000307
Mg       1.59435003      10.12548246       7.73769600      -0.00347620       0.00117531      -0.00000099
Mg       4.78305000       8.28448562       5.15846395      -0.00072626       0.00247812       0.00000195
Mg       4.78305003      10.12548246       7.73769600       0.00027598       0.00330623      -0.00000453
Mg       7.97175000       8.28448562       5.15846395       0.00171986      -0.00027201       0.00000469
Mg       7.97175003      10.12548246       7.73769600       0.00298561       0.00319397      -0.00000367
Mg       0.00000000       0.00000000      10.31692805      -0.00011535      -0.00130382      -0.00001261
Mg       0.00000003       1.84099684      12.89615995      -0.00100612       0.00354388      -0.00000425
Mg       3.18870000       0.00000000      10.31692805      -0.00183515      -0.00212716      -0.00000599
Mg       3.18870003       1.84099684      12.89615995       0.00207544       0.00038536      -0.00000030
Mg       6.37740000       0.00000000      10.31692805       0.00048200      -0.00487941      -0.00000209
Mg       6.37740003       1.84099684      12.89615995      -0.00347243       0.00117710      -0.00000321
Mg       9.56610000       0.00000000      10.31692805      -0.00072675       0.00247450      -0.00000709
Mg       9.56610003       1.84099684      12.89615995       0.00027570       0.00330617      -0.00000089
Mg      12.75480000       0.00000000      10.31692805       0.00172155      -0.00027667      -0.00000708
Mg      12.75480003       1.84099684      12.89615995       0.00298410       0.00319279      -0.00000503
Mg      -1.59435000       2.76149521      10.31692805      -0.00011542      -0.00130118      -0.00000769
Mg      -1.59434997       4.60249205      12.89615995      -0.00100387       0.00354378      -0.00000708
Mg       1.59435000       2.76149521      10.31692805      -0.00183731      -0.00212759      -0.00000474
Mg       1.59435003       4.60249205      12.89615995       0.00207327       0.00038735      -0.00000460
Mg       4.78305000       2.76149521      10.31692805       0.00048182      -0.00487546      -0.00000450
Mg       4.78305003       4.60249205      12.89615995      -0.00347717       0.00117702      -0.00000310
Mg       7.97175000       2.76149521      10.31692805      -0.00072660       0.00247441      -0.00000649
Mg       7.97175003       4.60249205      12.89615995       0.00027583       0.00330526      -0.00000256
Mg      11.16045000       2.76149521      10.31692805       0.00172307      -0.00027546      -0.00000813
Mg      11.16045003       4.60249205      12.89615995       0.00298979       0.00319462      -0.00000393
Mg      -3.18870000       5.52299041      10.31692805      -0.00011599      -0.00130233      -0.00000772
Mg      -3.18869997       7.36398725      12.89615995      -0.00100167       0.00354554      -0.00000163
Mg       0.00000000       5.52299041      10.31692805      -0.00183421      -0.00212326      -0.00000855
Mg       0.00000003       7.36398725      12.89615995       0.00207647       0.00038744      -0.00000285
Mg       3.18870000       5.52299041      10.31692805       0.00048246      -0.00487538      -0.00000664
Mg       3.18870003       7.36398725      12.89615995      -0.00347652       0.00117610      -0.00000264
Mg       6.37740000       5.52299041      10.31692805      -0.00072598       0.00247562      -0.00000754
Mg       6.37740003       7.36398725      12.89615995       0.00027230       0.00330751      -0.00000162
Mg       9.56610000       5.52299041      10.31692805       0.00172119      -0.00027593      -0.00000870
Mg       9.56610003       7.36398725      12.89615995       0.00298461       0.00319490      -0.00000446
Mg      -4.78305000       8.28448562      10.31692805      -0.00011504      -0.00130439      -0.00000923
Mg      -4.78304997      10.12548246      12.89615995      -0.00100255       0.00354580      -0.00000252
Mg      -1.59435000       8.28448562      10.31692805      -0.00183282      -0.00212559      -0.00000592
Mg      -1.59434997      10.12548246      12.89615995       0.00207441       0.00038637      -0.00000403
Mg       1.59435000       8.28448562      10.31692805       0.00048364      -0.00487311      -0.00000405
Mg       1.59435003      10.12548246      12.89615995      -0.00347508       0.00117969      -0.00000195
Mg       4.78305000       8.28448562      10.31692805      -0.00072684       0.00247579      -0.00000481
Mg       4.78305003      10.12548246      12.89615995       0.00027318       0.00330519      -0.00000563
Mg       7.97175000       8.28448562      10.31692805       0.00172148      -0.00027597      -0.00000557
Mg       7.97175003      10.12548246      12.89615995       0.00298666       0.00319542      -0.00000167
120
Lattice="15.9435 0.0 0.0 -6.3774 11.04598082 0.0 0.0 0.0 15.475392" Properties=species:S:1:pos:R:3:forces:R:3 energy=-180.56155129 stress="-0.0005874623420294513 0.00016998851840941808 3.636802537469657e-06 0.00016998851840941808 0.002309249861699143 -5.454910455275568e-06 3.636802537469657e-06 -5.454910455275568e-06 0.0014002934825498611" free_energy=-180.56045599 pbc="T T T"
Mg      -6.36891675      11.04036250      15.46395847      -0.01473847       0.01719276       0.02874318
Mg      -0.00632019       1.83849338       2.57291438       0.01365245      -0.00414096       0.01673558
Mg       3.19282178       0.00803197       0.00588049      -0.00532377      -0.03920931      -0.01714036
Mg       3.18267948       1.82642355       2.57913719       0.02900444       0.04692448       0.00924266
Mg       0.00357042      11.04263853       0.00311086      -0.01277568       0.00473963      -0.00844865
Mg       6.38025845       1.84573325       2.58758582      -0.02160859      -0.01016528      -0.01908334
Mg       9.56398854       0.00442568      15.46928402       0.00875860      -0.00737906       0.01076254
Mg       9.56554271       1.83842191       2.57905517      -0.00864955       0.02009389      -0.00297016
Mg       6.37932377      11.04565463       0.00429659       0.01072095       0.00228004      -0.02976453
Mg      12.74797628       1.84052065       2.58223784       0.02888545       0.00257412       0.00510268
Mg      14.34762532       2.76355694       0.00162584       0.01113010      -0.01388800       0.00415048
Mg      -1.59190172       4.59378870       2.58657791      -0.00535810       0.03074521      -0.00000318
Mg       1.60303490       2.75911259       0.00020041      -0.02904462       0.00419078       0.00274211
Mg       1.60169731       4.60623078       2.58139938      -0.00857235      -0.01974161      -0.00024540
Mg       4.78631226       2.75646365      15.47154513       0.00103271       0.00512120       0.01158516
Mg       4.78802928       4.60096173       2.57314620      -0.02101004      -0.01044348       0.01459449
Mg       7.96609350       2.76247233      15.46779080       0.01718281       0.00869184       0.02710349
Mg       7.96752762       4.60705558       2.58265660       0.02613195      -0.00806433      -0.01585190
Mg      11.16782610       2.76628198       0.00329982      -0.02033246      -0.01805356      -0.01723779
Mg      11.16795594       4.59871620       2.56932594      -0.02870675       0.02843993       0.02852046
Mg      -3.18467309       5.52479797       0.00052818      -0.00412911       0.00824952      -0.00388817
Mg      -3.19124092       7.36607030       2.57423056       0.00796868      -0.02851657       0.01119452
Mg       0.00032601       5.51848453       0.00545833       0.00064212       0.00355542      -0.01395669
Mg       0.00490406       7.36585490       2.57623246      -0.01440765      -0.00581518       0.00766092
Mg       3.18280792       5.51486499       0.00185086       0.01635255       0.02116069      -0.00488536
Mg       3.18534874       7.36145573       2.57759770       0.01533872       0.01863178       0.00288321
Mg       6.36950044       5.52572849      15.46515039       0.01680796      -0.00636969       0.02082709
Mg       6.37459206       7.36457324       2.57392198       0.00229838       0.00415531      -0.00307117
Mg       9.56471881       5.52235637      15.46887671       0.00119963      -0.00455610       0.03029710
Mg       9.55891918       7.36944573       2.58448084       0.02289378      -0.02613842      -0.01519265
Mg      -4.78218350       8.28715079       0.00630777       0.00796874      -0.01285956      -0.01765030
Mg      -4.77899410      10.11628336       2.57967774      -0.01890615       0.02912348       0.00145583
Mg      -1.58584328       8.28723264      15.46798733      -0.02194200      -0.00772495       0.01091423
Mg      -1.59881208      10.11331531       2.58431340       0.01550310       0.03796437      -0.02314605
Mg       1.59641245       8.28467726       0.00626800       0.00644050      -0.00382857      -0.02408541
Mg       1.58953538      10.13645476       2.58355742       0.02118131      -0.02101324      -0.00650159
Mg       4.79120038       8.28687475      15.47052097      -0.03088007       0.00245503       0.01068264
Mg       4.79173924      10.13660410       2.56773291      -0.02692766      -0.03835343       0.01762357
Mg       7.97270846       8.27839552      15.46540310       0.00237605       0.01179688       0.02447673
Mg       7.97795894      10.12029217       2.57365936      -0.01016201       0.01404175      -0.00240115
Mg       9.55991737      11.03373536       5.15993163       0.01122966       0.03173817      -0.01415293
Mg       0.00732837       1.84079183       7.73130667      -0.00947019      -0.00163867       0.01817613
Mg       3.18281832       0.00812564       5.15845327       0.00125718      -0.02212756       0.00739730
Mg       3.19518556       1.83559834       7.74314040      -0.01633452       0.02889151      -0.01313133
Mg      -0.01665101      11.04145186       5.15602487       0.05369668       0.01068319       0.01840463
Mg       6.37214595       1.83676910       7.73766861       0.02683619       0.00805482       0.01600796
Mg       3.20268934      11.03680791       5.15828706      -0.04076715       0.02774557       0.00622102
Mg       9.56626183       1.85295389       7.74407913      -0.00281092      -0.03445728      -0.01780191
Mg       6.38386729      11.04174999       5.15673891      -0.01499000       0.01009758       0.00261103
Mg      12.76126015       1.84197750       7.74026383      -0.02276404      -0.01411328       0.00277842
Mg      -1.59603080       2.76546657       5.17119029       0.00843559      -0.02304462      -0.03987689
Mg      -1.60450598       4.59360003       7.73088327       0.02894919       0.04777847       0.02638261
Mg       1.59722924       2.76129306       5.15352358      -0.00950078      -0.00047491       0.00967955
Mg       1.58882574       4.61023119       7.73799050       0.01881995      -0.01883000       0.00246357
Mg       4.78644740       2.76125827       5.17160689      -0.01756554      -0.00533406      -0.03951498
Mg       4.78441362       4.60311239       7.73643986      -0.01214071      -0.00703661       0.01115025
Mg       7.96850132       2.75733838       5.16515551       0.01108183      -0.00119534      -0.00907370
Mg       7.98056280       4.60785321       7.74004702      -0.02884070      -0.00981556       0.00009332
Mg      11.15741608       2.76452876       5.15566228       0.00483333      -0.01491048       0.01312992
Mg      11.16098985       4.60262106       7.73880079       0.00597564       0.00830326       0.00583692
Mg      12.74772361       5.52161220       5.16995180       0.01691558       0.01790626      -0.03655077
Mg      -3.19166606       7.37631479       7.74131430       0.01679203      -0.03203956      -0.01421589
Mg       0.00760138       5.52218184       5.15618690      -0.02236348       0.01060824       0.01159120
Mg       0.01095902       7.36644929       7.74865320      -0.03964749      -0.00869035      -0.04151530
Mg       3.19346452       5.52576660       5.16659348      -0.00512326      -0.01335475      -0.02013324
Mg       3.19644433       7.36940740       7.74219160      -0.02582340      -0.00688021      -0.00508285
Mg       6.37337050       5.51735133       5.15534937       0.00942792       0.01200287       0.00170761
Mg       6.36788709       7.35616548       7.72898722       0.02278835       0.02114623       0.01735697
Mg       9.56587880       5.52316229       5.16401776       0.00216942      -0.00598329      -0.02419494
Mg       9.56346419       7.35647057       7.74249507       0.00636951       0.03421978      -0.01312497
Mg      -4.78094409       8.28799117       5.15993071      -0.01069953      -0.01844277       0.00397092
Mg      -4.78002453      10.13095132       7.73632782      -0.01523327      -0.00913789       0.01178011
Mg      -1.59894855       8.28920247       5.14885125       0.01017823      -0.03072449       0.03999217
Mg      -1.59310341      10.13182682       7.74127685       0.00219555      -0.01855801      -0.01238568
Mg       1.59211721       8.28683852       5.15922286       0.00677323      -0.00777130       0.00592150
Mg       1.59328236      10.12194156       7.74714543      -0.00265205       0.01885703      -0.03432894
Mg       4.78330835       8.28166878       5.15336078      -0.00222247       0.01398882      -0.00236580
Mg       4.77499974      10.12452079       7.73955506       0.03545915       0.01007635      -0.00936360
Mg       7.96640488       8.27650942       5.15476595       0.00997271       0.00522593       0.01240495
Mg       7.96672451      10.12005799       7.73325781       0.01066123       0.00496892       0.01377056
Mg       9.56652212      11.03979463      10.31858701      -0.00261552       0.02281922      -0.01898963
Mg      -0.00831460       1.84968826      12.89573298       0.02746186      -0.00804924      -0.00402211
Mg       3.19635747       0.00303632      10.32048259      -0.02308600      -0.01096963      -0.00342147
Mg       3.18205991       1.84076454      12.90313827       0.01865316       0.00764208      -0.01830085
Mg       0.00179830      11.03953737      10.32069151       0.00064043       0.02419606      -0.00087913
Mg       6.38392060       1.84222681      12.89517618      -0.03266579      -0.00185857      -0.00334164
Mg       3.19182266      11.03701679      10.30802227      -0.01480017       0.04048335       0.02362368
Mg       9.56972880       1.84279479      12.89597858       0.00377995       0.00175224      -0.00855671
Mg      12.75706704       0.00089550      10.31985863       0.00334670       0.00425283      -0.01024758
Mg      12.76375690       1.84042002      12.89841796      -0.02884342       0.00543879      -0.00851967
Mg      -1.58689115       2.77362866      10.31980849      -0.01089208      -0.03718607      -0.01022688
Mg      -1.60204972       4.60656249      12.89951563       0.01443201      -0.00047182       0.00193010
Mg       1.60495259       2.75770754      10.31247346      -0.02433150       0.00847315       0.01105969
Mg       1.59907460       4.60473294      12.89263109      -0.02244781      -0.00362449       0.00614990
Mg       4.78265967       2.76483418      10.31630408       0.00564331      -0.01787114       0.01644627
Mg       4.77848120       4.61197789      12.89762021       0.01298335      -0.02953364      -0.00720151
Mg       7.96959071       2.76955722      10.31897127      -0.00129377      -0.02782741      -0.00488409
Mg       7.97334279       4.60353755      12.89286152      -0.01264752       0.00433811       0.00180860
Mg      11.15161201       2.76549363      10.31403570       0.03405646      -0.01492109       0.01670454
Mg      11.15708841       4.60305583      12.89621210       0.01917801      -0.00126582       0.00045957
Mg      -3.18619451       5.52450901      10.31908068      -0.00533706      -0.00244969      -0.00936313
Mg      -3.18883064       7.37155198      12.89132636      -0.01179052      -0.01832038       0.01394929
Mg      -0.00343997       5.52181401      10.31710865       0.00516396      -0.00829718      -0.00195098
Mg      -0.00550701       7.35678140      12.89240484       0.01831565       0.03021918       0.01544177
Mg       3.19017640       5.52652314      10.32058814      -0.01101449      -0.01172328      -0.01650448
Mg       3.19020956       7.36454507      12.89973260      -0.01739785       0.01013259       0.00202189
Mg       6.37010314       5.51818375      10.31384613       0.01496194       0.02366165       0.00553383
Mg       6.37835683       7.36535717      12.89745416       0.00029244       0.00747851      -0.02488878
Mg       9.57062830       5.52474087      10.32240866      -0.01208261      -0.00075885      -0.01022500
Mg       9.56886148       7.35763106      12.90252451      -0.00096038       0.02105438      -0.02249229
Mg      11.16025727       8.28234292      10.31289841      -0.00489310       0.01231232       0.01275292
Mg      -4.79426928      10.12373476      12.89418606       0.03005112       0.01040130       0.00188269
Mg      -1.59321843       8.28549014      10.31031743      -0.00885843      -0.00330347       0.01407956
Mg      -1.61231915      10.12339211      12.88962113       0.04803007       0.01825307       0.02111407
Mg       1.58462931       8.28235308      10.32419344       0.03117312      -0.00853624      -0.00148510
Mg       1.59830679      10.13637479      12.89481607      -0.02423195      -0.03110254       0.00767032
Mg       4.77727332       8.28565737      10.31804924       0.01486444      -0.00663432      -0.00380507
Mg       4.77884139      10.12630571      12.88687440       0.02601333       0.00632853       0.01979856
Mg       7.96672560       8.27917382      10.31292426       0.00458481       0.00277024       0.00926622
Mg       7.98366324      10.12511396      12.89583930      -0.04536074      -0.00183800      -0.00532403
120
Lattice="15.9435 0.0 0.0 -6.3774 11.04598082 0.0 0.0 0.0 15.475392" Properties=species:S:1:pos:R:3:forces:R:3 energy=-180.51457663 stress="-0.0006400727277420525 0.0001815973134439586 2.052645106229227e-06 0.0001815973134439586 0.002261404237811732 -1.5086975859085012e-06 2.052645106229227e-06 -1.5086975859085012e-06 0.001372413279193944" free_energy=-180.51345652 pbc="T T T"
Mg      -6.36043950      11.03475070      15.45253639      -0.03147494       0.04074050       0.06275074
Mg      -0.01263510       1.83598815       2.56660336       0.02489673      -0.01229701       0.03449910
Mg       3.19694151       0.01604815       0.01175418      -0.00721281      -0.07656088      -0.03322939
Mg       3.17667034       1.81186859       2.57904604       0.04554402       0.07940963       0.01786958
Mg       0.00713574      11.03929789       0.00621848      -0.02610132       0.01325730      -0.01502473
Mg       6.38310822       1.85046557       2.59593217      -0.04028820      -0.01871008      -0.03717903
Mg       9.56188036       0.00884816      15.46318037       0.01928479      -0.01379495       0.02167361
Mg       9.56498182       1.83585483       2.57887736      -0.01628977       0.03880882      -0.00709185
Mg       6.38125163      11.04532911       0.00858126       0.02095751       0.00502030      -0.05477614
Mg      12.74116403       1.84004523       2.58524563       0.05477274       0.00093621       0.01117313
Mg      14.34610486       2.76561304       0.00325324       0.02011151      -0.02319874       0.00856298
Mg      -1.58945579       4.58509739       2.59392377      -0.00878620       0.05466277      -0.00198092
Mg       1.61170820       2.75673129       0.00040190      -0.05598050       0.01677143       0.00486529
Mg       1.60904133       4.60996134       2.58356686      -0.02137192      -0.04496719      -0.00033681
Mg       4.78957494       2.75143386      15.46770290      -0.00048643       0.01711648       0.02364721
Mg       4.79300018       4.59942712       2.56706638      -0.04014831      -0.01851614       0.02916630
Mg       7.96044392       2.76345266      15.46020027       0.03546696       0.01009426       0.05310018
Mg       7.96331563       4.61161569       2.58607481       0.04626434      -0.01719551      -0.03014110
Mg      11.17519388       2.77106136       0.00659283      -0.04312517      -0.03255871      -0.03380234
Mg      11.17545047       4.59495151       2.55943113      -0.05622386       0.05254558       0.05986679
Mg      -3.18064796       5.52660863       0.00105480      -0.00636568       0.01778656      -0.00902927
Mg      -3.19377890       7.36814186       2.56923356       0.01823613      -0.06040558       0.02319254
Mg       0.00065228       5.51397987       0.01091108       0.00349022       0.00656197      -0.02277309
Mg       0.00980232       7.36772013       2.57323596      -0.02792055      -0.01445208       0.01470144
Mg       3.17692244       5.50674774       0.00369970       0.03308871       0.04428491      -0.00874210
Mg       3.18200367       7.35893139       2.57596442       0.03242835       0.03860276       0.00635695
Mg       6.36160758       5.52846380      15.45491713       0.03876335      -0.02265494       0.04505341
Mg       6.37178502       7.36516066       2.56861067       0.00105140       0.00390439      -0.00619815
Mg       9.56333804       5.52172023      15.46237348       0.00208370      -0.00790407       0.06012144
Mg       9.55174741       7.37489372       2.58972375       0.04024318      -0.05562526      -0.02709563
Mg      -4.78131404       8.28981055       0.01260858       0.01520891      -0.02424610      -0.03714707
Mg      -4.77494576      10.10709565       2.58012405      -0.03815222       0.05024610       0.00217629
Mg      -1.57734549       8.28997635      15.46058716      -0.04068141      -0.01367533       0.02084629
Mg      -1.60326812      10.10116307       2.58938561       0.02247175       0.06480450      -0.04494333