120
Lattice="15.9435 0.0 0.11957625 -6.3774 11.04598082 0.03501436 0.115488 0.115488 15.3984" Properties=species:S:1:pos:R:3:forces:R:3 energy=-180.44028687 stress="-0.0013860127910811668 0.0005224633034415578 0.002171873234713974 0.0005224633034415578 0.002042832923355063 0.0021842458906013765 0.002171873234713974 0.0021842458906013765 -0.0012752424941638496" free_energy=-180.44262694 pbc="T T T"
Mg       0.00000000       0.00000000       0.00000000       0.00253846      -0.00095094       0.00043135
Mg       0.01924803       1.86024484       2.58020753      -0.00425243       0.00054104      -0.00002438
Mg       3.18870000       0.00000000       0.02391525       0.00140514       0.00030072       0.00219090
Mg       3.20794803       1.86024484       2.60412278       0.00040916       0.00260744      -0.00018082
Mg       6.37740000       0.00000000       0.04783050       0.00692616      -0.00678665       0.00037229
Mg       6.39664803       1.86024484       2.62803803      -0.00513109      -0.00009932      -0.00099623
Mg       9.56610000       0.00000000       0.07174575      -0.00195836       0.00494433       0.00051958
Mg       9.58534803       1.86024484       2.65195328      -0.00180239       0.00204100       0.00047906
Mg      12.75480000       0.00000000       0.09566100       0.00361164      -0.00227414      -0.00134394
Mg      12.77404803       1.86024484       2.67586853      -0.00105826       0.00351189      -0.00005948
Mg      -1.59435000       2.76149521       0.00875359       0.00253905      -0.00094986       0.00043295
Mg      -1.57510197       4.62174005       2.58896112      -0.00425138       0.00054011      -0.00002589
Mg       1.59435000       2.76149521       0.03266884       0.00140513       0.00030099       0.00219024
Mg       1.61359803       4.62174005       2.61287637       0.00041007       0.00260607      -0.00018150
Mg       4.78305000       2.76149521       0.05658409       0.00692648      -0.00678682       0.00037117
Mg       4.80229803       4.62174005       2.63679162      -0.00513259      -0.00009847      -0.00099709
Mg       7.97175000       2.76149521       0.08049934      -0.00195913       0.00494322       0.00051877
Mg       7.99099803       4.62174005       2.66070687      -0.00180379       0.00204091       0.00047871
Mg      11.16045000       2.76149521       0.10441459       0.00361233      -0.00227643      -0.00134442
Mg      11.17969803       4.62174005       2.68462212      -0.00105846       0.00351072      -0.00005879
Mg      -3.18870000       5.52299041       0.01750718       0.00253888      -0.00095220       0.00043184
Mg      -3.16945197       7.38323525       2.59771471      -0.00425018       0.00054106      -0.00002442
Mg       0.00000000       5.52299041       0.04142243       0.00140631       0.00030151       0.00219095
Mg       0.01924803       7.38323525       2.62162996       0.00041027       0.00260471      -0.00017993
Mg       3.18870000       5.52299041       0.06533768       0.00692679      -0.00678790       0.00037172
Mg       3.20794803       7.38323525       2.64554521      -0.00513209      -0.00009990      -0.00099661
Mg       6.37740000       5.52299041       0.08925293      -0.00196092       0.00494298       0.00051702
Mg       6.39664803       7.38323525       2.66946046      -0.00180373       0.00204081       0.00047743
Mg       9.56610000       5.52299041       0.11316818       0.00361072      -0.00227680      -0.00134513
Mg       9.58534803       7.38323525       2.69337571      -0.00105905       0.00351271      -0.00005932
Mg      -4.78305000       8.28448562       0.02626077       0.00253976      -0.00095178       0.00043364
Mg      -4.76380197      10.14473046       2.60646830      -0.00425320       0.00054168      -0.00002472
Mg      -1.59435000       8.28448562       0.05017602       0.00140681       0.00029853       0.00219039
Mg      -1.57510197      10.14473046       2.63038355       0.00041018       0.00260599      -0.00018049
Mg       1.59435000       8.28448562       0.07409127       0.00692769      -0.00678675       0.00037233
Mg       1.61359803      10.14473046       2.65429880      -0.00512953      -0.00010036      -0.00099807
Mg       4.78305000       8.28448562       0.09800652      -0.00195915       0.00494425       0.00051890
Mg       4.80229803      10.14473046       2.67821405      -0.00180317       0.00204020       0.00047910
Mg       7.97175000       8.28448562       0.12192177       0.00361184      -0.00227435      -0.00134522
Mg       7.99099803      10.14473046       2.70212930      -0.00105895       0.00351282      -0.00005769
Mg       0.03849600       0.03849600       5.13279995       0.00253836      -0.00095087       0.00042720
Mg       0.05774403       1.89874084       7.71300748      -0.00425150       0.00054117      -0.00004258
Mg       3.22719600       0.03849600       5.15671520       0.00140600       0.00030232       0.00218731
Mg       3.24644403       1.89874084       7.73692273       0.00040946       0.00260738      -0.00019914
Mg       6.41589600       0.03849600       5.18063045       0.00692845      -0.00678668       0.00036597
Mg       6.43514403       1.89874084       7.76083798      -0.00513082      -0.00009873      -0.00101558
Mg       9.60459600       0.03849600       5.20454570      -0.00195867       0.00494348       0.00051386
Mg       9.62384403       1.89874084       7.78475323      -0.00180301       0.00204024       0.00046151
Mg      12.79329600       0.03849600       5.22846095       0.00361161      -0.00227387      -0.00135149
Mg      12.81254403       1.89874084       7.80866848      -0.00105953       0.00351225      -0.00007639
Mg      -1.55585400       2.79999120       5.14155354       0.00253854      -0.00095188       0.00042793
Mg      -1.53660597       4.66023605       7.72176107      -0.00425179       0.00054096      -0.00004063
Mg       1.63284600       2.79999120       5.16546879       0.00140598       0.00030141       0.00218670
Mg       1.65209403       4.66023605       7.74567632       0.00041053       0.00260536      -0.00019853
Mg       4.82154600       2.79999120       5.18938404       0.00692657      -0.00678738       0.00036614
Mg       4.84079403       4.66023605       7.76959157      -0.00513248      -0.00009883      -0.00101516
Mg       8.01024600       2.79999120       5.21329929      -0.00196003       0.00494325       0.00051259
Mg       8.02949403       4.66023605       7.79350682      -0.00180453       0.00204030       0.00046139
Mg      11.19894600       2.79999120       5.23721454       0.00361220      -0.00227438      -0.00134964
Mg      11.21819403       4.66023605       7.81742207      -0.00105826       0.00351147      -0.00007698
Mg      -3.15020400       5.56148641       5.15030713       0.00253965      -0.00095174       0.00042785
Mg      -3.13095597       7.42173125       7.73051466      -0.00425179       0.00054132      -0.00004195
Mg       0.03849600       5.56148641       5.17422238       0.00140621       0.00030012       0.00218630
Mg       0.05774403       7.42173125       7.75442991       0.00041111       0.00260532      -0.00020039
Mg       3.22719600       5.56148641       5.19813763       0.00692725      -0.00678617       0.00036633
Mg       3.24644403       7.42173125       7.77834516      -0.00512986      -0.00009979      -0.00101325
Mg       6.41589600       5.56148641       5.22205288      -0.00196166       0.00494308       0.00051262
Mg       6.43514403       7.42173125       7.80226041      -0.00180367       0.00203987       0.00046265
Mg       9.60459600       5.56148641       5.24596813       0.00361188      -0.00227509      -0.00135094
Mg       9.62384403       7.42173125       7.82617566      -0.00105884       0.00351129      -0.00007591
Mg      -4.74455400       8.32298161       5.15906072       0.00253929      -0.00095136       0.00042835
Mg      -4.72530597      10.18322646       7.73926825      -0.00425243       0.00054155      -0.00004177
Mg      -1.55585400       8.32298161       5.18297597       0.00140660       0.00030161       0.00218599
Mg      -1.53660597      10.18322646       7.76318350       0.00040969       0.00260732      -0.00019865
Mg       1.63284600       8.32298161       5.20689122       0.00692886      -0.00678641       0.00036748
Mg       1.65209403      10.18322646       7.78709875      -0.00513098      -0.00010021      -0.00101424
Mg       4.82154600       8.32298161       5.23080647      -0.00195985       0.00494406       0.00051554
Mg       4.84079403      10.18322646       7.81101400      -0.00180267       0.00204040       0.00046255
Mg       8.01024600       8.32298161       5.25472172       0.00361104      -0.00227417      -0.00134969
Mg       8.02949403      10.18322646       7.83492925      -0.00105811       0.00351160      -0.00007496
Mg       0.07699200       0.07699200      10.26560005       0.00253962      -0.00095101       0.00041664
Mg       0.09624003       1.93723684      12.84580743      -0.00425245       0.00054170      -0.00003641
Mg       3.26569200       0.07699200      10.28951530       0.00140539       0.00030030       0.00217501
Mg       3.28494003       1.93723684      12.86972268       0.00040968       0.00260706      -0.00019341
Mg       6.45439200       0.07699200      10.31343055       0.00692756      -0.00678617       0.00035295
Mg       6.47364003       1.93723684      12.89363793      -0.00513016      -0.00009787      -0.00100980
Mg       9.64309200       0.07699200      10.33734580      -0.00195907       0.00494244       0.00050144
Mg       9.66234003       1.93723684      12.91755318      -0.00180194       0.00204010       0.00046643
Mg      12.83179200       0.07699200      10.36126105       0.00361199      -0.00227383      -0.00136282
Mg      12.85104003       1.93723684      12.94146843      -0.00105686       0.00351122      -0.00007075
Mg      -1.51735800       2.83848721      10.27435364       0.00253991      -0.00095144       0.00041709
Mg      -1.49810997       4.69873204      12.85456102      -0.00425072       0.00054096      -0.00003497
Mg       1.67134200       2.83848721      10.29826889       0.00140634       0.00030126       0.00217434
Mg       1.69059003       4.69873204      12.87847627       0.00041029       0.00260799      -0.00019172
Mg       4.86004200       2.83848721      10.32218414       0.00692708      -0.00678699       0.00035509
Mg       4.87929003       4.69873204      12.90239152      -0.00513204      -0.00009855      -0.00101109
Mg       8.04874200       2.83848721      10.34609939      -0.00195951       0.00494399       0.00050180
Mg       8.06799003       4.69873204      12.92630677      -0.00180306       0.00204195       0.00046586
Mg      11.23744200       2.83848721      10.37001464       0.00361166      -0.00227461      -0.00136215
Mg      11.25669003       4.69873204      12.95022202      -0.00105848       0.00351158      -0.00007084
Mg      -3.11170800       5.59998241      10.28310723       0.00254083      -0.00095075       0.00041604
Mg      -3.09245997       7.46022725      12.86331461      -0.00425186       0.00054247      -0.00003572
Mg       0.07699200       5.59998241      10.30702248       0.00140630       0.00029995       0.00217504
Mg       0.09624003       7.46022725      12.88722986       0.00041054       0.00260684      -0.00019304
Mg       3.26569200       5.59998241      10.33093773       0.00692759      -0.00678742       0.00035508
Mg       3.28494003       7.46022725      12.91114511      -0.00513185      -0.00009880      -0.00100784
Mg       6.45439200       5.59998241      10.35485298      -0.00195959       0.00494395       0.00050217
Mg       6.47364003       7.46022725      12.93506036      -0.00180409       0.00203972       0.00046688
Mg       9.64309200       5.59998241      10.37876823       0.00361217      -0.00227473      -0.00136135
Mg       9.66234003       7.46022725      12.95897561      -0.00105981       0.00351233      -0.00007157
Mg      -4.70605800       8.36147762      10.29186082       0.00253835      -0.00094961       0.00041627
Mg      -4.68680997      10.22172245      12.87206820      -0.00425244       0.00054193      -0.00003619
Mg      -1.51735800       8.36147762      10.31577607       0.00140608       0.00030035       0.00217354
Mg      -1.49810997      10.22172245      12.89598345       0.00041051       0.00260747      -0.00019436
Mg       1.67134200       8.36147762      10.33969132       0.00692743      -0.00678700       0.00035431
Mg       1.69059003      10.22172245      12.91989870      -0.00513163      -0.00009912      -0.00100881
Mg       4.86004200       8.36147762      10.36360657      -0.00195995       0.00494212       0.00050239
Mg       4.87929003      10.22172245      12.94381395      -0.00180356       0.00204090       0.00046706
Mg       8.04874200       8.36147762      10.38752182       0.00361026      -0.00227408      -0.00136282
Mg       8.06799003      10.22172245      12.96772920      -0.00105950       0.00351172      -0.00007174
120
Lattice="15.9435 0.0 0.11957625 -6.3774 11.04598082 0.03501436 0.115488 0.115488 15.3984" Properties=species:S:1:pos:R:3:forces:R:3 energy=-180.42471254 stress="-0.0013953121590825302 0.0005520744707648652 0.002171541779371844 0.0005520744707648652 0.0020457491686299858 0.0021693935143458063 0.002171541779371844 0.0021693935143458063 -0.0012867102747827091" free_energy=-180.42704175 pbc="T T T"
Mg       9.68458896      11.15330342      15.54940371       0.00283978       0.01965585       0.00099992
Mg       0.02555996       1.86438984       2.57669253      -0.01461698      -0.01198904       0.02256442
Mg      -3.18038089      11.04499266       0.06362453      -0.03208386       0.00182310      -0.01222651
Mg       3.21036054       1.85838989       2.60196265      -0.00385292       0.01668562       0.00507611
Mg      -0.00547506      11.03147716       0.09002045       0.01692632       0.04305544      -0.02924629
Mg       6.40589298       1.85801999       2.62868360      -0.03113161       0.01754935      -0.00524529
Mg       3.17635417      11.04067375       0.10683003       0.02514351       0.01582115      -0.00604803
Mg       9.58813662       1.86001413       2.65032779       0.00669532       0.01677502      -0.00702074
Mg      12.86750205       0.11714116      15.49348036       0.01009287      -0.02012922      -0.00239409
Mg      12.76836143       1.86478238       2.66691522       0.00782153      -0.01084092       0.03594469
Mg      14.35168857       2.75497924       0.13923518       0.01173751       0.01503681      -0.03453941
Mg      -1.57783224       4.61940365       2.58736929       0.00472255       0.00103445       0.01383644
Mg       1.71546057       2.88854711      15.42584940      -0.01779656      -0.03317071       0.01468074
Mg       1.61540004       4.62096013       2.61508360      -0.00863980      -0.00241423      -0.00161329
Mg       4.78297102       2.75878810       0.05674611       0.01064342       0.00314099       0.00222732
Mg       4.79657415       4.61876219       2.64786400       0.01682019       0.00295568      -0.04448719
Mg       7.97057868       2.76523430       0.08498456       0.00421751      -0.01383771      -0.00323823
Mg       7.98841764       4.62446458       2.66485212       0.00039424      -0.00381146      -0.01718053
Mg      11.27947747       2.87959716      15.49294036      -0.01073529      -0.01541834       0.02751309
Mg      11.17794893       4.63239635       2.67993536       0.00678096      -0.03105398       0.00755797
Mg      -3.07088468       5.63615455      15.41053177       0.00037633       0.00745133       0.01775587
Mg      -3.15782460       7.37967656       2.60060113      -0.02874478       0.02353677      -0.01349613
Mg      -0.00541706       5.52862312       0.04403471       0.01189251      -0.02663106      -0.00184410
Mg       0.02356006       7.37893194       2.62346792      -0.00980655       0.01536225       0.01975897
Mg       3.29834446       5.63485644      15.46229839       0.01700667       0.00574439       0.00644952
Mg       3.20705710       7.38173828       2.65381548      -0.00710506       0.01611455      -0.01918975
Mg       6.48795247       5.62829569      15.47224080      -0.00236891       0.02082397       0.05485211
Mg       6.39278270       7.37619458       2.66110727       0.00580381       0.01186673       0.01566782
Mg       9.68660801       5.63726607      15.50929401      -0.01188855       0.00908362       0.00274126
Mg       9.58680003       7.37440145       2.69822449      -0.01135757       0.04186060      -0.01432338
Mg      11.15967238       8.28574452       0.15558934       0.01140559      -0.01334826      -0.02432956
Mg      -4.76280919      10.15137236       2.60463500      -0.00816473      -0.02151336       0.01057447
Mg      -1.48290567       8.40228189      15.44448350       0.00261092      -0.02339717       0.00793912
Mg      -1.57566501      10.14855069       2.62098121       0.00322963      -0.02046242       0.03442178
Mg       1.58501370       8.28036114       0.08157287       0.03184790      -0.00500975      -0.00460598
Mg       1.61471503      10.16048103       2.65289395      -0.00077179      -0.05175211       0.02230109
Mg       4.89915547       8.39530560      15.49237285      -0.01600835       0.00951187       0.01121672
Mg       4.80269473      10.14027483       2.67238014      -0.00076167       0.00745145       0.00788221
Mg       8.09177522       8.38867093      15.51495533      -0.00879823       0.02538252       0.01258887
Mg       7.99304412      10.14946648       2.70567798      -0.00309469      -0.01892249      -0.01157804
Mg       9.60422156      11.07925192       5.29548647       0.00473421       0.01215886      -0.02632910
Mg       0.05926270       1.89099976       7.71036154      -0.00615798       0.02609684       0.02434854
Mg       3.22700351       0.03992826       5.14812992       0.00191484      -0.01234466       0.02374648
Mg       3.24805794       1.89510334       7.73785645       0.00212253       0.00547989       0.00456135
Mg       6.41234308       0.03944161       5.17269824       0.00916426      -0.01331408       0.01957614
Mg       6.43357327       1.89911791       7.76079377      -0.00587815      -0.00345492      -0.01330589
Mg       9.60915010       0.04415184       5.20547263      -0.01290403      -0.01581254      -0.01018863
Mg       9.62242000       1.89461746       7.78214577      -0.00226480       0.01874700       0.00818903
Mg       6.41687171      11.08204031       5.26465867       0.00032823       0.01854146      -0.01346290
Mg      12.82047668       1.89887534       7.80987203      -0.03268942       0.00305231      -0.00434742
Mg      14.38594686       2.80096029       5.26950688       0.00309142      -0.01135973      -0.03251413
Mg      -1.54792038       4.66117089       7.72285029       0.03540402      -0.00035189      -0.00548977
Mg       1.63270213       2.79533929       5.17622650       0.00725382       0.00155904      -0.03103986
Mg       1.64986582       4.66200754       7.74152672       0.00733149      -0.00278497       0.01830580
Mg       4.81652617       2.79967207       5.18670593       0.02173574      -0.01211847       0.00404012
Mg       4.83517706       4.65887169       7.75898572       0.00550840       0.00301539       0.03255204
Mg       8.01199191       2.79916014       5.21248582      -0.00594034       0.00513485       0.00225829
Mg       8.03109438       4.66272054       7.78436781       0.00064853      -0.00740893       0.02447762
Mg      11.19568424       2.80405872       5.23906895       0.02196781       0.00008782      -0.00708075
Mg      11.22339537       4.66518304       7.82293890      -0.03094132      -0.00767138      -0.01996011
Mg      -3.14606468       5.57042423       5.14701394      -0.00542069      -0.02946155       0.00692135
Mg      -3.12774192       7.41900093       7.72903374      -0.01799025       0.01298121       0.01104379
Mg       0.04537334       5.54569532       5.18246372      -0.02254844       0.03549667      -0.02262771
Mg       0.06519490       7.42380915       7.75119355      -0.02426442      -0.01121210       0.01970295
Mg       3.22835164       5.56455370       5.19299079       0.00426735      -0.00491376       0.02152341
Mg       3.24940671       7.42282182       7.78766745      -0.01052595      -0.00515328      -0.03111509
Mg       6.42192738       5.55808155       5.22593899      -0.01665107       0.01644224      -0.00793059
Mg       6.43396669       7.42528696       7.80806708      -0.00069637      -0.00833415      -0.02369486
Mg       9.61170402       5.56678992       5.24157062      -0.00302985      -0.01737541       0.02561551
Mg       9.61418292       7.42975908       7.83142830       0.02855432      -0.02112611      -0.00724694
Mg      11.19159492       8.32467292       5.27701159       0.01896157       0.00070761       0.00450674
Mg      -4.71645467      10.18098572       7.74200562      -0.01556126       0.01386020      -0.01419521
Mg      -1.56253647       8.31981442       5.18499635       0.02229512       0.00961194      -0.01165466
Mg      -1.53427956      10.17365304       7.76436950       0.00391152       0.02502436      -0.00842402
Mg       1.62781252       8.32017163       5.21661082       0.02216332       0.01441861      -0.03025895
Mg       1.65261864      10.18491995       7.78324743      -0.00617730       0.00015065       0.00555254
Mg       4.82504792       8.32791573       5.23709754      -0.01336261      -0.01253768      -0.01066667
Mg       4.83542959      10.18775293       7.80915873       0.01476216       0.00002438       0.00651065
Mg       8.00790379       8.31852284       5.26033145      -0.00014888       0.00615452      -0.02194070
Mg       8.02796631      10.18713541       7.83210504       0.00134286      -0.00752526       0.01133717
Mg       0.07995441       0.07752684      10.27141343       0.00650840       0.01454408      -0.01829793
Mg       0.09570709       1.93722721      12.84796536      -0.00466015       0.00330039      -0.00185967
Mg       3.27541292       0.07957377      10.28822264      -0.01129119       0.01141442       0.00524272
Mg       3.27888694       1.92910551      12.88106633       0.01753620       0.03093285      -0.03844760
Mg       6.46078419       0.07908460      10.31096790      -0.00096277      -0.01558998       0.01524346
Mg       6.47243721       1.94279749      12.89988424      -0.00576027      -0.02398473      -0.00142601
Mg       3.27051986      11.11936395      10.37457303      -0.01297879       0.00624520       0.00985954
Mg       9.66446290       1.94147854      12.92136170      -0.01950268      -0.00707848      -0.00477924
Mg      12.84060167       0.08330977      10.35763620      -0.02199261      -0.01982555       0.00568689
Mg      12.85797760       1.94095437      12.94225566      -0.01679249       0.00216595      -0.00414180
Mg      14.42008895       2.84287593      10.39240715       0.02376343      -0.00908414       0.00639705
Mg      -1.49836461       4.70470039      12.85630951      -0.00258521      -0.02678195      -0.00460424
Mg       1.67040725       2.84885033      10.29726599       0.01581152      -0.03057012      -0.00092577
Mg       1.68605636       4.69678651      12.86683752       0.00686265       0.00356695       0.03024065
Mg       4.86978727       2.84265916      10.32362772      -0.03059859      -0.00501006       0.00506239
Mg       4.88034196       4.70898135      12.89728683      -0.02147332      -0.03384272       0.00788481
Mg       8.03951240       2.83485679      10.34702744       0.02810249       0.01716976       0.00364029
Mg       8.06333431       4.70862565      12.93508628       0.01940761      -0.02190618      -0.02625809
Mg      11.22942487       2.82939712      10.36643856       0.01151985       0.01904231       0.01190915
Mg      11.25609517       4.69944173      12.95641988      -0.00272713       0.00410275      -0.03176923
Mg      12.82706517       5.59205786      10.39520420      -0.00409724       0.02730862       0.03285660
Mg      -3.09538806       7.45406675      12.85919034      -0.01436786       0.01118785       0.00036538
Mg       0.07716477       5.60165809      10.30379719      -0.00507689       0.00183332      -0.00630682
Mg       0.09634919       7.44679496      12.88803664       0.00254684       0.03447425      -0.00409281
Mg       3.26922807       5.61007007      10.33837688       0.00299251      -0.03792293      -0.02922843
Mg       3.28512130       7.45437654      12.91571358      -0.00612025       0.03068103      -0.00834293
Mg       6.45907739       5.60426230      10.35489205      -0.00663736      -0.01154848      -0.00761549
Mg       6.47131518       7.46111426      12.93918958      -0.00163758       0.02055262      -0.02755303
Mg       9.63848537       5.59787345      10.38443865       0.01476904       0.00125315      -0.01409847
Mg       9.65667990       7.46684508      12.94753506       0.01735772      -0.00755266       0.02019314
Mg      -4.70753604       8.37914117      10.28546357       0.01350995      -0.05643620       0.01259203
Mg      -4.68219827      10.21550463      12.86895772      -0.01625542       0.01260508       0.01462945
Mg      -1.51141531       8.36117150      10.32347141      -0.00737723      -0.00826670      -0.02012490
Mg      -1.50527479      10.21609728      12.89671124       0.02396610       0.01530132      -0.00688947
Mg       1.68018015       8.36488219      10.34059100      -0.01394980      -0.00801889       0.00733183
Mg       1.68152204      10.21029181      12.92794168       0.00938224       0.02283724      -0.01935628
Mg       4.86407157       8.35533598      10.34859007      -0.00316205       0.03324044       0.05658501
Mg       4.88009540      10.22784259      12.94510224      -0.00963677      -0.01297438      -0.01139732
Mg       8.04303486       8.36375505      10.38071864       0.01285137       0.00170609       0.01839551
Mg       8.06045898      10.22543628      12.95949029       0.01874007      -0.01268603       0.02491320
120
Lattice="15.9435 0.0 0.11957625 -6.3774 11.04598082 0.03501436 0.115488 0.115488 15.3984" Properties=species:S:1:pos:R:3:forces:R:3 energy=-180.37841207 stress="-0.0014139941755415236 0.0005595382858304158 0.002176700848536062 0.0005595382858304158 0.002015928199218921 0.0021623404405128116 0.002176700848536062 0.0021623404405128116 -0.0013312004633640453" free_energy=-180.38070436 pbc="T T T"
Mg       9.68759104      11.14514575      15.54581719      -0.00012085       0.03543727       0.00304194
Mg       0.03186593       1.86853016       2.57318653      -0.02455841      -0.02179942       0.04192335
Mg      -3.17207425      11.04400501       0.06831459      -0.06317558       0.00792732      -0.02738441
Mg       3.21277152       1.85654148       2.59980441      -0.00881750       0.02923359       0.00970889
Mg      -0.01094328      11.01699043       0.09718436       0.02728720       0.08606012      -0.05982930
Mg       6.41512554       1.85580219       2.62932714      -0.05767933       0.04053248      -0.00994780
Mg       3.16401830      11.03537285       0.10689744       0.05306509       0.02588823      -0.01794937
Mg       9.59092796       1.85978991       2.64869960       0.01561389       0.03154589      -0.01257278
Mg      12.86472020       0.11878635      15.49289862       0.01679744      -0.03553649      -0.00323768
Mg      12.76267796       1.86931560       2.65797606       0.01380179      -0.01921101       0.07165678
Mg      14.35423181       2.74846925       0.15012660       0.02309366       0.03171266      -0.07187512
Mg      -1.58056070       4.61706752       2.58578286       0.01846967       0.00264372       0.02892842
Mg       1.72107600       2.90009781      15.42063565      -0.03812937      -0.05774544       0.02379646
Mg       1.61719880       4.62017921       2.61729019      -0.01650139      -0.00932567      -0.00077280
Mg       4.78289625       2.75608200       0.05690893       0.01651549       0.00977137       0.00781034
Mg       4.79085703       4.61578553       2.65891873       0.03837075       0.00471713      -0.08515795
Mg       7.96940894       2.76896786       0.08946836       0.01168017      -0.03116175      -0.01050989
Mg       7.98583735       4.62718741       2.66899042       0.00452017      -0.00953495      -0.03279527
Mg      11.28301275       2.88220480      15.48307698      -0.02013125      -0.02537888       0.05653838
Mg      11.17620259       4.64304019       2.67525160       0.01660253      -0.06304656       0.01048003
Mg      -3.06855699       5.63383351      15.40516331      -0.00144518       0.01774972       0.03187641
Mg      -3.14620854       7.37612710       2.60348230      -0.05123056       0.04200491      -0.02402601
Mg      -0.01082943       5.53424522       0.04664632       0.02431021      -0.04831746      -0.00447010
Mg       0.02786806       7.37463464       2.62531360      -0.01911407       0.02943744       0.04106496
Mg       3.29250763       5.63123670      15.46086162       0.02854608       0.01840379       0.01668306
Mg       3.20616327       7.38024755       2.66207808      -0.00626880       0.03265077      -0.04087019
Mg       6.48301603       5.61812108      15.45685043      -0.00676365       0.02962904       0.11297520
Mg       6.38891974       7.36915848       2.65276013       0.01235595       0.02162138       0.03554546
Mg       9.69162328       5.63605728      15.50702076      -0.02586709       0.01754724       0.00623566
Mg       9.58824777       7.36558429       2.70306767      -0.01725249       0.07717843      -0.02969775
Mg      11.15889940       8.28699795       0.16533195       0.01866056      -0.02890433      -0.04776771
Mg      -4.76181976      10.15800580       2.60280593      -0.01352179      -0.04377327       0.01901188
Mg      -1.48694821       8.40458080      15.44039400       0.00098273      -0.04654316       0.01262038
Mg      -1.57622668      10.15236275       2.61159253       0.00857894      -0.04289001       0.07187280