120
Lattice="15.8637825 0.0 0.0 -6.345513 10.99075092 0.0 0.0 0.0 15.321408" Properties=species:S:1:pos:R:3:forces:R:3 energy=-180.31411044 stress="-0.004830292877532919 0.0004369973328223964 -1.3219516328620742e-08 0.0004369973328223964 -0.002004780632984256 2.6788557168290948e-08 -1.3219516328620742e-08 2.6788557168290948e-08 -0.004481645541934499" free_energy=-180.31419379 pbc="T T T"
Mg       0.00000000       0.00000000       0.00000000       0.00040070      -0.00147643      -0.00001275
Mg       0.00000003       1.83179186       2.55356805      -0.00004866       0.00342519      -0.00000493
Mg       3.17275650       0.00000000       0.00000000      -0.00126579       0.00015847      -0.00001182
Mg       3.17275653       1.83179186       2.55356805       0.00270141       0.00536462      -0.00000392
Mg       6.34551300       0.00000000       0.00000000       0.00426976      -0.00739269      -0.00001199
Mg       6.34551303       1.83179186       2.55356805      -0.00038196       0.00224064      -0.00000600
Mg       9.51826950       0.00000000       0.00000000      -0.00374145       0.00442844      -0.00000990
Mg       9.51826953       1.83179186       2.55356805       0.00285590       0.00433528      -0.00000655
Mg      12.69102600       0.00000000       0.00000000       0.00167338      -0.00315067      -0.00001125
Mg      12.69102603       1.83179186       2.55356805       0.00268526       0.00219587      -0.00000512
Mg      -1.58637825       2.74768773       0.00000000       0.00040193      -0.00147635      -0.00001324
Mg      -1.58637822       4.57947959       2.55356805      -0.00004774       0.00342479      -0.00000471
Mg       1.58637825       2.74768773       0.00000000      -0.00126696       0.00015980      -0.00001193
Mg       1.58637828       4.57947959       2.55356805       0.00270014       0.00536456      -0.00000469
Mg       4.75913475       2.74768773       0.00000000       0.00426968      -0.00739363      -0.00001189
Mg       4.75913478       4.57947959       2.55356805      -0.00038170       0.00223984      -0.00000392
Mg       7.93189125       2.74768773       0.00000000      -0.00374176       0.00442825      -0.00001119
Mg       7.93189128       4.57947959       2.55356805       0.00285597       0.00433700      -0.00000677
Mg      11.10464775       2.74768773       0.00000000       0.00167346      -0.00314984      -0.00001179
Mg      11.10464778       4.57947959       2.55356805       0.00268482       0.00219685      -0.00000554
Mg      -3.17275650       5.49537546       0.00000000       0.00040138      -0.00147776      -0.00001242
Mg      -3.17275647       7.32716732       2.55356805      -0.00004910       0.00342511      -0.00000391
Mg       0.00000000       5.49537546       0.00000000      -0.00126621       0.00015861      -0.00001366
Mg       0.00000003       7.32716732       2.55356805       0.00270210       0.00536307      -0.00000448
Mg       3.17275650       5.49537546       0.00000000       0.00426784      -0.00739259      -0.00001182
Mg       3.17275653       7.32716732       2.55356805      -0.00038144       0.00223843      -0.00000532
Mg       6.34551300       5.49537546       0.00000000      -0.00374000       0.00442784      -0.00001012
Mg       6.34551303       7.32716732       2.55356805       0.00285601       0.00433572      -0.00000487
Mg       9.51826950       5.49537546       0.00000000       0.00167227      -0.00315130      -0.00001163
Mg       9.51826953       7.32716732       2.55356805       0.00268331       0.00219722      -0.00000539
Mg      -4.75913475       8.24306319       0.00000000       0.00039909      -0.00147630      -0.00001194
Mg      -4.75913472      10.07485505       2.55356805      -0.00004861       0.00342445      -0.00000478
Mg      -1.58637825       8.24306319       0.00000000      -0.00126525       0.00015912      -0.00001203
Mg      -1.58637822      10.07485505       2.55356805       0.00270143       0.00536410      -0.00000445
Mg       1.58637825       8.24306319       0.00000000       0.00426743      -0.00739450      -0.00001184
Mg       1.58637828      10.07485505       2.55356805      -0.00038249       0.00223905      -0.00000482
Mg       4.75913475       8.24306319       0.00000000      -0.00374199       0.00442826      -0.00001084
Mg       4.75913478      10.07485505       2.55356805       0.00285662       0.00433522      -0.00000664
Mg       7.93189125       8.24306319       0.00000000       0.00167331      -0.00315053      -0.00001108
Mg       7.93189128      10.07485505       2.55356805       0.00268424       0.00219740      -0.00000483
Mg       0.00000000       0.00000000       5.10713595       0.00040077      -0.00147754       0.00000722
Mg       0.00000003       1.83179186       7.66070400      -0.00004938       0.00342454       0.00001191
Mg       3.17275650       0.00000000       5.10713595      -0.00126704       0.00015883       0.00000821
Mg       3.17275653       1.83179186       7.66070400       0.00270079       0.00536422       0.00001383
Mg       6.34551300       0.00000000       5.10713595       0.00426904      -0.00739477       0.00000840
Mg       6.34551303       1.83179186       7.66070400      -0.00038307       0.00223990       0.00001159
Mg       9.51826950       0.00000000       5.10713595      -0.00374040       0.00442674       0.00000781
Mg       9.51826953       1.83179186       7.66070400       0.00285687       0.00433647       0.00001145
Mg      12.69102600       0.00000000       5.10713595       0.00167245      -0.00315231       0.00000731
Mg      12.69102603       1.83179186       7.66070400       0.00268641       0.00219629       0.00001134
Mg      -1.58637825       2.74768773       5.10713595       0.00039994      -0.00147552       0.00000793
Mg      -1.58637822       4.57947959       7.66070400      -0.00004768       0.00342547       0.00001185
Mg       1.58637825       2.74768773       5.10713595      -0.00126575       0.00015919       0.00000799
Mg       1.58637828       4.57947959       7.66070400       0.00270084       0.00536345       0.00001269
Mg       4.75913475       2.74768773       5.10713595       0.00426912      -0.00739348       0.00000811
Mg       4.75913478       4.57947959       7.66070400      -0.00038278       0.00223830       0.00001057
Mg       7.93189125       2.74768773       5.10713595      -0.00373964       0.00442870       0.00000696
Mg       7.93189128       4.57947959       7.66070400       0.00285695       0.00433512       0.00001173
Mg      11.10464775       2.74768773       5.10713595       0.00167370      -0.00315040       0.00000892
Mg      11.10464778       4.57947959       7.66070400       0.00268422       0.00219660       0.00001143
Mg      -3.17275650       5.49537546       5.10713595       0.00040113      -0.00147594       0.00000694
Mg      -3.17275647       7.32716732       7.66070400      -0.00004758       0.00342562       0.00001178
Mg       0.00000000       5.49537546       5.10713595      -0.00126525       0.00015787       0.00000681
Mg       0.00000003       7.32716732       7.66070400       0.00270021       0.00536358       0.00001343
Mg       3.17275650       5.49537546       5.10713595       0.00426913      -0.00739361       0.00000693
Mg       3.17275653       7.32716732       7.66070400      -0.00038112       0.00224019       0.00001039
Mg       6.34551300       5.49537546       5.10713595      -0.00374135       0.00442697       0.00000583
Mg       6.34551303       7.32716732       7.66070400       0.00285606       0.00433594       0.00001055
Mg       9.51826950       5.49537546       5.10713595       0.00167319      -0.00315141       0.00000784
Mg       9.51826953       7.32716732       7.66070400       0.00268448       0.00219671       0.00001274
Mg      -4.75913475       8.24306319       5.10713595       0.00040060      -0.00147667       0.00000825
Mg      -4.75913472      10.07485505       7.66070400      -0.00004789       0.00342477       0.00001173
Mg      -1.58637825       8.24306319       5.10713595      -0.00126587       0.00015853       0.00000700
Mg      -1.58637822      10.07485505       7.66070400       0.00270059       0.00536461       0.00001281
Mg       1.58637825       8.24306319       5.10713595       0.00426815      -0.00739381       0.00000728
Mg       1.58637828      10.07485505       7.66070400      -0.00038183       0.00223818       0.00001106
Mg       4.75913475       8.24306319       5.10713595      -0.00373963       0.00442620       0.00000688
Mg       4.75913478      10.07485505       7.66070400       0.00285580       0.00433546       0.00001137
Mg       7.93189125       8.24306319       5.10713595       0.00167146      -0.00315169       0.00000841
Mg       7.93189128      10.07485505       7.66070400       0.00268535       0.00219610       0.00001150
Mg       0.00000000       0.00000000      10.21427205       0.00040035      -0.00147661       0.00000557
Mg       0.00000003       1.83179186      12.76783995      -0.00004711       0.00342587      -0.00000707
Mg       3.17275650       0.00000000      10.21427205      -0.00126528       0.00015930       0.00000389
Mg       3.17275653       1.83179186      12.76783995       0.00270066       0.00536439      -0.00000644
Mg       6.34551300       0.00000000      10.21427205       0.00426793      -0.00739452       0.00000472
Mg       6.34551303       1.83179186      12.76783995      -0.00038288       0.00223841      -0.00000317
Mg       9.51826950       0.00000000      10.21427205      -0.00374033       0.00442837       0.00000386
Mg       9.51826953       1.83179186      12.76783995       0.00285651       0.00433625      -0.00000508
Mg      12.69102600       0.00000000      10.21427205       0.00167317      -0.00314976       0.00000399
Mg      12.69102603       1.83179186      12.76783995       0.00268495       0.00219792      -0.00000549
Mg      -1.58637825       2.74768773      10.21427205       0.00040159      -0.00147725       0.00000454
Mg      -1.58637822       4.57947959      12.76783995      -0.00004744       0.00342534      -0.00000637
Mg       1.58637825       2.74768773      10.21427205      -0.00126521       0.00016052       0.00000444
Mg       1.58637828       4.57947959      12.76783995       0.00269931       0.00536347      -0.00000613
Mg       4.75913475       2.74768773      10.21427205       0.00426678      -0.00739456       0.00000416
Mg       4.75913478       4.57947959      12.76783995      -0.00038417       0.00223838      -0.00000604
Mg       7.93189125       2.74768773      10.21427205      -0.00374028       0.00442883       0.00000162
Mg       7.93189128       4.57947959      12.76783995       0.00285752       0.00433592      -0.00000378
Mg      11.10464775       2.74768773      10.21427205       0.00167269      -0.00315079       0.00000331
Mg      11.10464778       4.57947959      12.76783995       0.00268617       0.00219601      -0.00000538
Mg      -3.17275650       5.49537546      10.21427205       0.00040028      -0.00147581       0.00000545
Mg      -3.17275647       7.32716732      12.76783995      -0.00004808       0.00342447      -0.00000788
Mg       0.00000000       5.49537546      10.21427205      -0.00126590       0.00015868       0.00000565
Mg       0.00000003       7.32716732      12.76783995       0.00270018       0.00536434      -0.00000561
Mg       3.17275650       5.49537546      10.21427205       0.00426913      -0.00739441       0.00000516
Mg       3.17275653       7.32716732      12.76783995      -0.00038262       0.00223818      -0.00000503
Mg       6.34551300       5.49537546      10.21427205      -0.00374109       0.00442838       0.00000269
Mg       6.34551303       7.32716732      12.76783995       0.00285730       0.00433543      -0.00000503
Mg       9.51826950       5.49537546      10.21427205       0.00167314      -0.00315033       0.00000329
Mg       9.51826953       7.32716732      12.76783995       0.00268505       0.00219694      -0.00000478
Mg      -4.75913475       8.24306319      10.21427205       0.00040058      -0.00147530       0.00000470
Mg      -4.75913472      10.07485505      12.76783995      -0.00004829       0.00342597      -0.00000691
Mg      -1.58637825       8.24306319      10.21427205      -0.00126594       0.00015924       0.00000465
Mg      -1.58637822      10.07485505      12.76783995       0.00270061       0.00536316      -0.00000545
Mg       1.58637825       8.24306319      10.21427205       0.00426827      -0.00739301       0.00000469
Mg       1.58637828      10.07485505      12.76783995      -0.00038289       0.00223798      -0.00000587
Mg       4.75913475       8.24306319      10.21427205      -0.00374046       0.00442870       0.00000358
Mg       4.75913478      10.07485505      12.76783995       0.00285738       0.00433410      -0.00000697
Mg       7.93189125       8.24306319      10.21427205       0.00167346      -0.00315031       0.00000368
Mg       7.93189128      10.07485505      12.76783995       0.00268426       0.00219618      -0.00000557
120
Lattice="15.8637825 0.0 0.0 -6.345513 10.99075092 0.0 0.0 0.0 15.321408" Properties=species:S:1:pos:R:3:forces:R:3 energy=-180.29665113 stress="-0.004830657400390397 0.0004203362858108184 3.0205970659985805e-06 0.0004203362858108184 -0.0020612520100006197 3.262205884261522e-06 3.0205970659985805e-06 3.262205884261522e-06 -0.004546479411466395" free_energy=-180.29672006 pbc="T T T"
Mg      -6.34275016      10.98881820       0.00162560       0.00534052       0.00632580      -0.00413961
Mg      -0.01124482       1.83161073       2.55984615       0.02722567       0.00655142       0.00205194
Mg      -3.16333567      10.98517674       0.01065052      -0.02320173       0.00845860      -0.04438797
Mg       3.17222954       1.82029938       2.54916453      -0.00106378       0.01523521       0.03010450
Mg       6.34271092       0.00444312      15.32081169       0.02053840      -0.02866775       0.00177626
Mg       6.34133959       1.83418180       2.55034826       0.00963020      -0.02276011       0.02339378
Mg       3.17924552      10.98468633      15.31709993      -0.02209017       0.01138266       0.00992684
Mg       9.51360929       1.82943643       2.55070938       0.01173617       0.01055683       0.00108131
Mg      12.69312319       0.00806721      15.32129600      -0.00240159      -0.03271774       0.01148172
Mg      12.69602303       1.83642380       2.55404501      -0.01957105      -0.01212039       0.01282611
Mg      14.27907791       2.74255582       0.01016438      -0.00138649       0.03759646      -0.02332129
Mg      -1.58639043       4.58987409       2.56001898       0.00506246      -0.01987738      -0.02391315
Mg       1.58525941       2.74109240       0.01838477       0.00602979       0.00513511      -0.05944042
Mg       1.59493524       4.57476532       2.54745879      -0.02858237       0.00236868       0.02924358
Mg       4.76214100       2.74804482       0.00201814      -0.01661296      -0.00360103       0.00155622
Mg       4.75823546       4.56859215       2.55814655       0.00598262       0.02965749      -0.00029941
Mg       7.92410071       2.74474990      15.31998173       0.01919184       0.00876717      -0.00034409
Mg       7.93443022       4.57203676       2.55032834      -0.00034890       0.03579197       0.01580326
Mg      11.10434599       2.74231743       0.00148694      -0.00723934       0.01615632      -0.00194293
Mg      11.10299290       4.57973809       2.54112967       0.00874002      -0.00089740       0.02576121
Mg      12.67907483       5.50422664      15.31780226       0.03136126      -0.02786247      -0.00220424
Mg      -3.17669167       7.33075668       2.55203514       0.02263449      -0.01033786      -0.00877662
Mg      -0.00013183       5.50278158       0.00313323      -0.01522492      -0.02508225      -0.01221060
Mg       0.00509300       7.33194599       2.55547572      -0.00518312      -0.00556669      -0.00629070
Mg       3.16810819       5.49835022       0.00525049       0.02865271      -0.02039375      -0.00658611
Mg       3.16945106       7.31927914       2.56048873       0.00875744       0.02519205      -0.03366203
Mg       6.35302460       5.49521675       0.00794446      -0.03082029       0.00955389      -0.01877769
Mg       6.34625707       7.33157758       2.56087667       0.00761909      -0.00025249      -0.02591029
Mg       9.51321689       5.49729445      15.31939063       0.00228134      -0.01296214      -0.01536679
Mg       9.53437038       7.33404797       2.54320848      -0.05939378      -0.02742920       0.02771872
Mg      -4.75951183       8.24764359      15.31739992       0.00542057      -0.00276429      -0.00602553
Mg      -4.76134927      10.07135361       2.55006987       0.01079683       0.02317538       0.00449249
Mg      -1.58477046       8.24247628      15.31729987       0.00051621      -0.00301701      -0.00706620
Mg      -1.59043630      10.07000999       2.55190721       0.02860727       0.01111028       0.01430841
Mg       1.58606304       8.24315112      15.31557560       0.00544984      -0.00225217       0.01084532
Mg       1.59031935      10.07365123       2.55008243      -0.02254313       0.00591519       0.00411647
Mg       4.75873730       8.24469543      15.31907240       0.00208282       0.00018971       0.01417961
Mg       4.75333774      10.08287599       2.55919637       0.03900579      -0.01763648      -0.02299543
Mg       7.93161988       8.24774514      15.31762361      -0.00367632      -0.00582099       0.01394440
Mg       7.94470401      10.07902131       2.55412652      -0.05655897      -0.01789570      -0.00372244
Mg       9.51449256      10.98163123       5.09803028       0.02166924       0.02095352       0.03485768
Mg       0.00572778       1.82600885       7.65599558      -0.00666830       0.00926310       0.01879120
Mg      -3.17344588      10.98146857       5.10765167      -0.00669887       0.02480928       0.00128057
Mg       3.18263237       1.83045813       7.65834680      -0.02000877       0.00039809       0.00692404
Mg       6.34476515       0.00249908       5.11673236       0.00933535      -0.01326116      -0.04175453
Mg       6.34606230       1.82630022       7.65988859       0.01048650       0.01988871       0.00714310
Mg       3.17516729      10.98400623       5.09930426      -0.00950254       0.04111456       0.01447765
Mg       9.51900336       1.83142235       7.64879023       0.00697481       0.00498202       0.03982138
Mg      12.69509538       0.00209704       5.12050434      -0.01530038      -0.01707272      -0.04644959
Mg      12.69040687       1.83861162       7.65610773      -0.00370005      -0.01247786       0.02689599
Mg      14.27349307       2.74512875       5.11507857       0.02125276       0.01003087      -0.01862634
Mg      -1.58409869       4.57636470       7.66127534       0.00081173       0.01359071       0.00149918
Mg       1.58021806       2.75233319       5.11006433       0.01716131      -0.02084158      -0.02058715
Mg       1.59243241       4.57502086       7.65491450      -0.00984694       0.00844069       0.02622764
Mg       4.75534381       2.74060826       5.10811254       0.01506819       0.02291095      -0.00384993
Mg       4.76432624       4.58260393       7.66110542      -0.02321800      -0.00118606      -0.01239945
Mg       7.94169174       2.75423657       5.10715633      -0.03496491      -0.01568281      -0.00878256
Mg       7.92748309       4.57557534       7.66008885       0.02130034       0.02177833       0.00919021
Mg      11.11376165       2.75077668       5.10251179      -0.01948421      -0.01003159      -0.00592593
Mg      11.10134786       4.58035709       7.65706639       0.00944352      -0.00020954       0.01246049
Mg      -3.16577298       5.49526918       5.10036189      -0.01932980       0.00133585       0.02042700
Mg      -3.17382350       7.32410947       7.66613452       0.01501382       0.00208548      -0.03251542
Mg       0.00027612       5.50066872       5.10560871       0.00742120      -0.01058787       0.00009395
Mg       0.00194887       7.32182889       7.66298566      -0.00951299       0.01186628      -0.01290683
Mg       3.16673978       5.50524362       5.10467395       0.01543272      -0.03834958       0.01670538
Mg       3.16038570       7.33350118       7.66997590       0.03601444      -0.02063656      -0.02099793
Mg       6.34508458       5.50631170       5.11033920      -0.00372456      -0.03740619      -0.01113321
Mg       6.34815020       7.32559487       7.67047936      -0.01102224       0.02201581      -0.03051523
Mg       9.52644160       5.49178280       5.10596310      -0.01318942       0.02440699      -0.01054627
Mg       9.52564406       7.33391630       7.66246213      -0.02841778      -0.01927820      -0.01756780
Mg      -4.75418338       8.24904029       5.10114620      -0.01352465      -0.03028413       0.02049842
Mg      -4.75447787      10.06798934       7.66518429      -0.01133898       0.02741026      -0.02002473
Mg      -1.58879827       8.23917741       5.10052890       0.01670011       0.00800488       0.02484642
Mg      -1.58195346      10.07661928       7.66319633      -0.00284030      -0.02017617      -0.00434986
Mg       1.59304348       8.25216067       5.11483296      -0.03630710      -0.02108862      -0.01920372
Mg       1.58736958      10.07666610       7.65642289      -0.00604211       0.00392987       0.02456062
Mg       4.74119522       8.23884131       5.09998621       0.05710616       0.01471278       0.03971226
Mg       4.75505478      10.07504848       7.65737481       0.01022302       0.00396390       0.00113739
Mg       7.92790151       8.24165198       5.10948579       0.01139301      -0.00363053      -0.00292862
Mg       7.93247101      10.08248801       7.65754656       0.00572951      -0.02438075       0.01364536
Mg      15.85929990       0.00164004      10.21591558       0.01020493       0.00226194      -0.01197998
Mg      -0.00437872       1.82871203      12.77142117       0.01850456       0.02975194      -0.00311237
Mg      -3.17579286      10.98515036      10.21133463       0.00708297       0.01521667       0.00485634
Mg       3.18361777       1.82792872      12.76450279      -0.04167284       0.00060485       0.01873343
Mg      -0.00557894      10.99043461      10.22168348       0.01281284      -0.00371257      -0.02036932
Mg       6.34182962       1.83317010      12.76961984       0.01398018      -0.01541477      -0.00103144
Mg       3.16784552      10.98873280      10.21602160       0.00445039       0.02820904      -0.01831926
Mg       9.51222572       1.81633150      12.77843715       0.00823311       0.03912684      -0.02630780
Mg       6.34700061      10.99062112      10.20949177      -0.01261154       0.00396844       0.00935870
Mg      12.68875703       1.83343387      12.77373685       0.00786626      -0.00363997      -0.00869510
Mg      14.26728424       2.75228384      10.21380766       0.04161143      -0.01671073      -0.00043990
Mg      -1.59048576       4.57654714      12.76584418       0.00843950       0.01128335       0.02423476
Mg       1.59074387       2.74729195      10.21304373      -0.01343160       0.00318016       0.00457312
Mg       1.59167352       4.57842107      12.77310132      -0.01836857      -0.01823864      -0.00271687
Mg       4.76969248       2.75183938      10.21464206      -0.02698842      -0.02175324      -0.01193546
Mg       4.75798713       4.56419156      12.77151264       0.00407642       0.05361960       0.00401684
Mg       7.92945292       2.74585293      10.21939109       0.02522528       0.00514177      -0.01939142
Mg       7.92688366       4.57131577      12.75740622       0.01328253       0.02621052       0.02454601
Mg      11.11197650       2.75478776      10.22536000      -0.04270822      -0.03108829      -0.03551148
Mg      11.10195763       4.57171704      12.76394678      -0.00965650       0.01889007       0.02209993
Mg      12.68734494       5.49553406      10.21560900       0.00993497      -0.00160421      -0.01074836
Mg      -3.18100624       7.32719996      12.76056075       0.02231052       0.00508994       0.01264418
Mg      -0.00402518       5.50129189      10.21912649       0.02178093      -0.03613512      -0.01781276
Mg       0.00309905       7.32580798      12.75713595      -0.01812886      -0.00016563       0.03231084
Mg       3.17420626       5.50011390      10.21727060      -0.00758161      -0.02720069      -0.00394618
Mg       3.17153347       7.31824964      12.76925228       0.01641717       0.02266154      -0.00758857
Mg       6.33721383       5.49423275      10.21081370       0.01866960       0.01718139       0.02182083
Mg       6.34991215       7.33173243      12.76790782      -0.01703372      -0.01672750      -0.00669250
Mg       9.52206053       5.50956826      10.21849524      -0.02306583      -0.03826462      -0.01864273
Mg       9.52438229       7.32918060      12.77043310      -0.02191343      -0.00299918      -0.00729493
Mg      -4.75546866       8.23891286      10.20731797      -0.00876871       0.02062815       0.02696062
Mg      -4.76544708      10.07988386      12.76417706       0.02253562      -0.00766304       0.00924418
Mg      -1.58315238       8.23465999      10.21114924      -0.01144118       0.02684653       0.00499784
Mg      -1.58564147      10.07982034      12.76531299      -0.01191359      -0.02530075       0.00821990
Mg       1.58256951       8.24653352      10.21486514       0.00710086      -0.01325869      -0.00051092
Mg       1.58219332      10.07136592      12.76422839       0.00345258       0.00115624       0.01315230
Mg       4.75246460       8.24785582      10.20443126       0.01409175      -0.00787380       0.03664757
Mg       4.75623063      10.07726829      12.76244283       0.01336161      -0.01490157       0.00511067
Mg       7.93211284       8.24444561      10.21747085      -0.00086378       0.00320317      -0.00145798
Mg       7.93307961      10.08431951      12.77157577      -0.00716830      -0.02267699      -0.00860953
120
Lattice="15.8637825 0.0 0.0 -6.345513 10.99075092 0.0 0.0 0.0 15.321408" Properties=species:S:1:pos:R:3:forces:R:3 energy=-180.24447438 stress="-0.0048342636320161695 0.0004108703444139035 1.751860539943787e-06 0.0004108703444139035 -0.0021154469900501 -8.039875150324001e-07 1.751860539943787e-06 -8.039875150324001e-07 -0.00461311715203378" free_energy=-180.24451594 pbc="T T T"
Mg      -6.33998514      10.98688800       0.00324967       0.00944296       0.01717056      -0.00506851
Mg      -0.02247904       1.83143235       2.56612517       0.06460755       0.01889152       0.00386741
Mg      -3.15392410      10.97960597       0.02128327      -0.04686271       0.01776499      -0.09052209
Mg       3.17170207       1.80881294       2.54477295      -0.00937489       0.03286976       0.06665062
Mg       6.33991702       0.00887481      15.32021615       0.03535666      -0.04329228       0.00350260
Mg       6.33716986       1.83656283       2.54713766       0.02209099      -0.04458594       0.04871828
Mg       3.18572559      10.97862625      15.31279584      -0.04386795       0.01158702       0.02635617
Mg       9.50895372       1.82708529       2.54785102       0.02245395       0.01415958       0.00256984
Mg      12.69521931       0.01612145      15.32118860      -0.00790070      -0.05913160       0.02294175
Mg      12.70101212       1.84105101       2.55452717      -0.04104474      -0.02196613       0.02597321
Mg      14.28075087       2.73743885       0.02031940      -0.00575841       0.07460814      -0.04749487
Mg      -1.58640062       4.60026068       2.56646040       0.01135209      -0.03496746      -0.04731787
Mg       1.58414263       2.73449927       0.03674595       0.01190078       0.01443023      -0.11626192
Mg       1.60348068       4.57005205       2.54136118      -0.06424349       0.00606900       0.05518615
Mg       4.76514078       2.74840048       0.00403704      -0.04138275      -0.00106044      -0.00097320
Mg       4.75733834       4.55771658       2.56272489       0.01226015       0.05577791      -0.00214733
Mg       7.91631758       2.74181570      15.31855531       0.04962128       0.00912782      -0.00316261
Mg       7.93696899       4.56460822       2.54709506      -0.00440170       0.06889946       0.03461983
Mg      11.10404118       2.73695350       0.00297327      -0.01486106       0.03505040      -0.00553931
Mg      11.10134133       4.57999637       2.52870156       0.01251623      -0.00186287       0.05409685
Mg      12.66713597       5.51306694      15.31419575       0.06467716      -0.05199823      -0.00603059
Mg      -3.18061786       7.33434197       2.55049887       0.04262307      -0.01780698      -0.02197158
Mg      -0.00026984       5.51017780       0.00626171      -0.02375288      -0.04863533      -0.02508367
Mg       0.01018369       7.33672257       2.55738094      -0.01164825      -0.01157158      -0.00815375
Mg       3.16347095       5.50131706       0.01049854       0.05608146      -0.03376116      -0.01675329
Mg       3.16614895       7.31140108       2.56739623       0.01729268       0.04692538      -0.06603123
Mg       6.36052388       5.49506178       0.01588156      -0.05909358       0.02011551      -0.04211219
Mg       6.34700397       7.33598783       2.56817518       0.01203548      -0.00445807      -0.04894482
Mg       9.50816519       5.49920826      15.31736713       0.00463108      -0.02336731      -0.02963475
Mg       9.55044763       7.34091785       2.53285994      -0.11393051      -0.05045017       0.05717137
Mg      -4.75988685       8.25222288      15.31338969       0.01274523      -0.00412885      -0.01406777
Mg      -4.76355970      10.06786152       2.54657368       0.02249462       0.04432508       0.00765691
Mg      -1.58316250       8.24188828      15.31318898       0.00105127      -0.00722955      -0.01279859
Mg      -1.59448312      10.06516934       2.55025204       0.05476568       0.01698702       0.02844807