120
Lattice="16.0232175 0.0 0.0 -6.409287 11.10121072 0.0 0.0 0.0 15.475392" Properties=species:S:1:pos:R:3:forces:R:3 energy=-180.60829686 stress="0.00210214428064634 0.0003039137344026834 -1.8474867012614444e-09 0.0003039137344026834 0.005091637978044325 7.876784516864672e-09 -1.8474867012614444e-09 7.876784516864672e-09 0.002584533812465927" free_energy=-180.60639578 pbc="T T T"
Mg       0.00000000       0.00000000       0.00000000       0.00011921      -0.00106245      -0.00000947
Mg       0.00000003       1.85020182       2.57923205       0.00024908       0.00358948      -0.00000201
Mg       3.20464350       0.00000000       0.00000000       0.00137539      -0.00394382      -0.00000930
Mg       3.20464353       1.85020182       2.57923205       0.00251822       0.00335663      -0.00000122
Mg       6.40928700       0.00000000       0.00000000       0.00147198      -0.00398128      -0.00000867
Mg       6.40928703       1.85020182       2.57923205      -0.00562900       0.00001739      -0.00000052
Mg       9.61393050       0.00000000       0.00000000      -0.00153729       0.00187046      -0.00000934
Mg       9.61393053       1.85020182       2.57923205       0.00165479      -0.00040124      -0.00000129
Mg      12.81857400       0.00000000       0.00000000      -0.00107323       0.00174658      -0.00000887
Mg      12.81857403       1.85020182       2.57923205      -0.00200714       0.00308561      -0.00000103
Mg      -1.60232175       2.77530268       0.00000000       0.00011865      -0.00106350      -0.00000943
Mg      -1.60232172       4.62550450       2.57923205       0.00024855       0.00358939      -0.00000152
Mg       1.60232175       2.77530268       0.00000000       0.00137516      -0.00394294      -0.00000876
Mg       1.60232178       4.62550450       2.57923205       0.00251858       0.00335741       0.00000016
Mg       4.80696525       2.77530268       0.00000000       0.00147183      -0.00398223      -0.00000941
Mg       4.80696528       4.62550450       2.57923205      -0.00562841       0.00001661      -0.00000078
Mg       8.01160875       2.77530268       0.00000000      -0.00153815       0.00187076      -0.00000983
Mg       8.01160878       4.62550450       2.57923205       0.00165454      -0.00040075      -0.00000244
Mg      11.21625225       2.77530268       0.00000000      -0.00107421       0.00174884      -0.00000872
Mg      11.21625228       4.62550450       2.57923205      -0.00200684       0.00308730      -0.00000006
Mg      -3.20464350       5.55060536       0.00000000       0.00011880      -0.00106230      -0.00000907
Mg      -3.20464347       7.40080718       2.57923205       0.00024853       0.00359084      -0.00000154
Mg       0.00000000       5.55060536       0.00000000       0.00137462      -0.00394370      -0.00000887
Mg       0.00000003       7.40080718       2.57923205       0.00251692       0.00335812      -0.00000186
Mg       3.20464350       5.55060536       0.00000000       0.00147268      -0.00398219      -0.00000928
Mg       3.20464353       7.40080718       2.57923205      -0.00562832       0.00001684      -0.00000157
Mg       6.40928700       5.55060536       0.00000000      -0.00153758       0.00187040      -0.00001042
Mg       6.40928703       7.40080718       2.57923205       0.00165554      -0.00040062      -0.00000140
Mg       9.61393050       5.55060536       0.00000000      -0.00107403       0.00174805      -0.00000901
Mg       9.61393053       7.40080718       2.57923205      -0.00200761       0.00308670       0.00000014
Mg      -4.80696525       8.32590804       0.00000000       0.00011784      -0.00106227      -0.00000911
Mg      -4.80696522      10.17610986       2.57923205       0.00024821       0.00358997      -0.00000256
Mg      -1.60232175       8.32590804       0.00000000       0.00137399      -0.00394333      -0.00000941
Mg      -1.60232172      10.17610986       2.57923205       0.00251771       0.00335790      -0.00000069
Mg       1.60232175       8.32590804       0.00000000       0.00147281      -0.00398227      -0.00000911
Mg       1.60232178      10.17610986       2.57923205      -0.00562836       0.00001767      -0.00000071
Mg       4.80696525       8.32590804       0.00000000      -0.00153696       0.00186953      -0.00001059
Mg       4.80696528      10.17610986       2.57923205       0.00165577      -0.00040195      -0.00000209
Mg       8.01160875       8.32590804       0.00000000      -0.00107337       0.00174767      -0.00000903
Mg       8.01160878      10.17610986       2.57923205      -0.00200662       0.00308524      -0.00000057
Mg       0.00000000       0.00000000       5.15846395       0.00011915      -0.00106339       0.00000743
Mg       0.00000003       1.85020182       7.73769600       0.00024929       0.00358875       0.00000806
Mg       3.20464350       0.00000000       5.15846395       0.00137408      -0.00394249       0.00000813
Mg       3.20464353       1.85020182       7.73769600       0.00251811       0.00335745       0.00000940
Mg       6.40928700       0.00000000       5.15846395       0.00147226      -0.00398137       0.00000850
Mg       6.40928703       1.85020182       7.73769600      -0.00562795       0.00001704       0.00000946
Mg       9.61393050       0.00000000       5.15846395      -0.00153712       0.00187052       0.00000824
Mg       9.61393053       1.85020182       7.73769600       0.00165569      -0.00040193       0.00000881
Mg      12.81857400       0.00000000       5.15846395      -0.00107322       0.00174696       0.00000796
Mg      12.81857403       1.85020182       7.73769600      -0.00200756       0.00308459       0.00000936
Mg      -1.60232175       2.77530268       5.15846395       0.00011934      -0.00106323       0.00000813
Mg      -1.60232172       4.62550450       7.73769600       0.00024935       0.00358833       0.00000781
Mg       1.60232175       2.77530268       5.15846395       0.00137487      -0.00394403       0.00000816
Mg       1.60232178       4.62550450       7.73769600       0.00251842       0.00335695       0.00000971
Mg       4.80696525       2.77530268       5.15846395       0.00147253      -0.00398173       0.00000854
Mg       4.80696528       4.62550450       7.73769600      -0.00562817       0.00001596       0.00000906
Mg       8.01160875       2.77530268       5.15846395      -0.00153836       0.00187043       0.00000754
Mg       8.01160878       4.62550450       7.73769600       0.00165500      -0.00040138       0.00000896
Mg      11.21625225       2.77530268       5.15846395      -0.00107409       0.00174701       0.00000831
Mg      11.21625228       4.62550450       7.73769600      -0.00200746       0.00308479       0.00000852
Mg      -3.20464350       5.55060536       5.15846395       0.00011831      -0.00106234       0.00000831
Mg      -3.20464347       7.40080718       7.73769600       0.00024770       0.00358884       0.00000798
Mg       0.00000000       5.55060536       5.15846395       0.00137475      -0.00394299       0.00000795
Mg       0.00000003       7.40080718       7.73769600       0.00251821       0.00335819       0.00000949
Mg       3.20464350       5.55060536       5.15846395       0.00147419      -0.00398197       0.00000787
Mg       3.20464353       7.40080718       7.73769600      -0.00562772       0.00001614       0.00000866
Mg       6.40928700       5.55060536       5.15846395      -0.00153632       0.00186983       0.00000729
Mg       6.40928703       7.40080718       7.73769600       0.00165545      -0.00040235       0.00000903
Mg       9.61393050       5.55060536       5.15846395      -0.00107342       0.00174758       0.00000842
Mg       9.61393053       7.40080718       7.73769600      -0.00200697       0.00308570       0.00000842
Mg      -4.80696525       8.32590804       5.15846395       0.00011910      -0.00106285       0.00000770
Mg      -4.80696522      10.17610986       7.73769600       0.00024915       0.00358961       0.00000744
Mg      -1.60232175       8.32590804       5.15846395       0.00137434      -0.00394258       0.00000794
Mg      -1.60232172      10.17610986       7.73769600       0.00251833       0.00335764       0.00000859
Mg       1.60232175       8.32590804       5.15846395       0.00147280      -0.00398186       0.00000800
Mg       1.60232178      10.17610986       7.73769600      -0.00562775       0.00001636       0.00000888
Mg       4.80696525       8.32590804       5.15846395      -0.00153703       0.00187048       0.00000669
Mg       4.80696528      10.17610986       7.73769600       0.00165652      -0.00040249       0.00000843
Mg       8.01160875       8.32590804       5.15846395      -0.00107434       0.00174795       0.00000749
Mg       8.01160878      10.17610986       7.73769600      -0.00200686       0.00308496       0.00000834
Mg       0.00000000       0.00000000      10.31692805       0.00011858      -0.00106253       0.00000127
Mg       0.00000003       1.85020182      12.89615995       0.00024913       0.00358848      -0.00000755
Mg       3.20464350       0.00000000      10.31692805       0.00137473      -0.00394291       0.00000037
Mg       3.20464353       1.85020182      12.89615995       0.00251836       0.00335761      -0.00000715
Mg       6.40928700       0.00000000      10.31692805       0.00147167      -0.00398074       0.00000127
Mg       6.40928703       1.85020182      12.89615995      -0.00562864       0.00001638      -0.00000841
Mg       9.61393050       0.00000000      10.31692805      -0.00153671       0.00187137       0.00000043
Mg       9.61393053       1.85020182      12.89615995       0.00165538      -0.00040189      -0.00000781
Mg      12.81857400       0.00000000      10.31692805      -0.00107355       0.00174722       0.00000102
Mg      12.81857403       1.85020182      12.89615995      -0.00200701       0.00308509      -0.00000718
Mg      -1.60232175       2.77530268      10.31692805       0.00011851      -0.00106238       0.00000050
Mg      -1.60232172       4.62550450      12.89615995       0.00024848       0.00358892      -0.00000779
Mg       1.60232175       2.77530268      10.31692805       0.00137545      -0.00394361       0.00000134
Mg       1.60232178       4.62550450      12.89615995       0.00251864       0.00335698      -0.00000800
Mg       4.80696525       2.77530268      10.31692805       0.00147332      -0.00398078       0.00000098
Mg       4.80696528       4.62550450      12.89615995      -0.00562820       0.00001523      -0.00000901
Mg       8.01160875       2.77530268      10.31692805      -0.00153738       0.00187216       0.00000057
Mg       8.01160878       4.62550450      12.89615995       0.00165524      -0.00040151      -0.00000901
Mg      11.21625225       2.77530268      10.31692805      -0.00107408       0.00174788       0.00000188
Mg      11.21625228       4.62550450      12.89615995      -0.00200781       0.00308547      -0.00000784
Mg      -3.20464350       5.55060536      10.31692805       0.00011830      -0.00106255       0.00000053
Mg      -3.20464347       7.40080718      12.89615995       0.00024770       0.00358976      -0.00000875
Mg       0.00000000       5.55060536      10.31692805       0.00137463      -0.00394243       0.00000176
Mg       0.00000003       7.40080718      12.89615995       0.00251777       0.00335754      -0.00000811
Mg       3.20464350       5.55060536      10.31692805       0.00147330      -0.00398204       0.00000116
Mg       3.20464353       7.40080718      12.89615995      -0.00562746       0.00001573      -0.00000814
Mg       6.40928700       5.55060536      10.31692805      -0.00153715       0.00187091       0.00000103
Mg       6.40928703       7.40080718      12.89615995       0.00165569      -0.00040260      -0.00000825
Mg       9.61393050       5.55060536      10.31692805      -0.00107397       0.00174779       0.00000055
Mg       9.61393053       7.40080718      12.89615995      -0.00200747       0.00308548      -0.00000693
Mg      -4.80696525       8.32590804      10.31692805       0.00011798      -0.00106210       0.00000040
Mg      -4.80696522      10.17610986      12.89615995       0.00024853       0.00358919      -0.00000850
Mg      -1.60232175       8.32590804      10.31692805       0.00137483      -0.00394207       0.00000043
Mg      -1.60232172      10.17610986      12.89615995       0.00251787       0.00335800      -0.00000741
Mg       1.60232175       8.32590804      10.31692805       0.00147334      -0.00398093       0.00000075
Mg       1.60232178      10.17610986      12.89615995      -0.00562780       0.00001607      -0.00000776
Mg       4.80696525       8.32590804      10.31692805      -0.00153596       0.00187111       0.00000031
Mg       4.80696528      10.17610986      12.89615995       0.00165589      -0.00040155      -0.00000801
Mg       8.01160875       8.32590804      10.31692805      -0.00107406       0.00174756       0.00000215
Mg       8.01160878      10.17610986      12.89615995      -0.00200659       0.00308465      -0.00000740
120
Lattice="16.0232175 0.0 0.0 -6.409287 11.10121072 0.0 0.0 0.0 15.475392" Properties=species:S:1:pos:R:3:forces:R:3 energy=-180.5932549 stress="0.0021331042942653333 0.00032163409658461547 5.583928690416702e-06 0.00032163409658461547 0.0051367841742008275 -5.168706054308192e-06 5.583928690416702e-06 -5.168706054308192e-06 0.0026125543499130304" free_energy=-180.59136902 pbc="T T T"
Mg      -0.00036645       0.00603018      15.47521790      -0.00466222      -0.00577256       0.00316522
Mg      -0.00582107       1.85143994       2.58286799       0.02460749       0.01028836      -0.00798029
Mg      -3.21041792      11.09878033      15.47209187       0.01716083       0.00085009       0.01905022
Mg       3.20234144       1.85428851       2.57950101       0.00162531      -0.00363504       0.00252402
Mg       6.40644211       0.00234313      15.47481384       0.00477422      -0.01507354      -0.00875550
Mg       6.40546674       1.84794084       2.58120532      -0.00082201       0.00856580      -0.00028070
Mg       3.20913154      11.09681087      15.47353464      -0.01047717       0.00514732       0.00400178
Mg       9.61409733       1.85199800       2.58417690       0.00831369      -0.00604433      -0.00822439
Mg       6.40520996      11.09546740      15.47021672       0.01095073       0.01478413       0.02065163
Mg      12.81906755       1.85575465       2.58861447      -0.01554149      -0.02091382      -0.02732396
Mg      14.41533794       2.77771331       0.00346401       0.00848118      -0.02353883      -0.00573384
Mg      -1.59921546       4.61801008       2.57349919      -0.02453694       0.03544996       0.01594080
Mg       1.60916254       2.77755345      15.46673336      -0.02162793      -0.01507760       0.02256762
Mg       1.60036922       4.62997130       2.57993432       0.01385132      -0.01836314       0.02432356
Mg       4.81556613       2.77128693       0.00732357      -0.01676719       0.00987455      -0.02638195
Mg       4.80884904       4.63128202       2.57314001       0.00033107      -0.00166604       0.02279131
Mg       8.01712167       2.76389985      15.47160950      -0.00549794       0.03369198       0.01383706
Mg       8.01159683       4.62211186       2.58396737      -0.00695996       0.01433487      -0.01264394
Mg      11.21903673       2.77632876      15.47456376      -0.00124993      -0.01032128       0.00897506
Mg      11.20648190       4.62358133       2.56941044       0.03315692       0.00448277       0.02512385
Mg      -3.19434807       5.55542406      15.47416465      -0.01900139      -0.00673908       0.00223238
Mg      -3.21816360       7.40647280       2.57547958       0.05001771      -0.00730536      -0.00715352
Mg      -0.00221056       5.53994986       0.00771897       0.01107640       0.02460621      -0.02789524
Mg       0.00436992       7.39854165       2.58281259      -0.03391848       0.01311837      -0.01091426
Mg       3.19708653       5.54172650       0.00869253       0.02439518       0.01499529      -0.02318316
Mg       3.19922538       7.40124968       2.58093419       0.01929623      -0.00013002      -0.00895486
Mg       6.41226770       5.56162376       0.00432599       0.00497134      -0.03411351      -0.01330002
Mg       6.40801626       7.41367426       2.57560710       0.01734602      -0.02158602       0.01017598
Mg       9.61919031       5.54896982      15.47525303      -0.01888812       0.00738714      -0.00723945
Mg       9.62714113       7.39591111       2.58145076      -0.04572400       0.01360277      -0.01339461
Mg      11.21438782       8.32449841      15.46638223       0.01302179       0.00352624       0.00979250
Mg      -4.80826028      10.18073529       2.57999329       0.00550947      -0.00332172      -0.00737847
Mg      -1.59262360       8.32497121      15.46980090      -0.02984622       0.00578887       0.02587853
Mg      -1.59678948      10.17615083       2.58519735      -0.01843562      -0.00294754      -0.00626724
Mg       1.59950746       8.32635398       0.00199106       0.01295442      -0.00552770      -0.00421363
Mg       1.60310009      10.18009731       2.57558729      -0.00990276      -0.00393274       0.00708178
Mg       4.81010811       8.32074309      15.47238962      -0.01559654       0.00759995       0.00622928
Mg       4.79841581      10.17575984       2.57707664       0.02585449       0.00986461       0.00971222
Mg       8.01387664       8.32669989      15.47033356       0.00871216      -0.00289444       0.01628265
Mg       8.01941988      10.17716570       2.57652757      -0.02551756       0.00466457       0.01193725
Mg       0.00292622       0.00321202       5.15892991      -0.01175398      -0.00965110       0.00002121
Mg      -0.00012706       1.85137555       7.72658560      -0.00345997       0.00865190       0.02883907
Mg       3.19650015       0.00202963       5.16399098       0.02381214      -0.00034060      -0.00491310
Mg       3.21156098       1.85627074       7.74308948      -0.01861612      -0.01442531       0.01009810
Mg       6.41336055       0.00456737       5.16046198      -0.02843223      -0.02633491       0.00095436
Mg       6.40561884       1.84962956       7.73973984       0.00660004      -0.00376502      -0.01230262
Mg       9.60330320       0.00007671       5.15906733       0.03153765      -0.01194640       0.00999386
Mg       9.61275619       1.85482159       7.73716148       0.00305538      -0.01473179      -0.00048946
Mg      12.81478233       0.00847233       5.16362840       0.00794181      -0.02355963      -0.02315015
Mg      12.81804309       1.85931359       7.73341024      -0.00536083      -0.02271284       0.01258292
Mg      14.41528932       2.78151669       5.15105990       0.02344350      -0.00393334       0.02441147
Mg      -1.61279523       4.62318590       7.74870303       0.02628420       0.01642906      -0.04016020
Mg       1.60907528       2.77484409       5.17211773      -0.02595120       0.02144213      -0.04239942
Mg       1.59650487       4.63038682       7.73507122       0.01505164      -0.00585780      -0.00221755
Mg       4.79864061       2.78592920       5.16092345       0.02152598      -0.03017161      -0.01538949
Mg       4.81297623       4.61948099       7.73382638      -0.01563407       0.00880771       0.01456989
Mg       8.00565590       2.76328851       5.15508799       0.00484785       0.04239839       0.01369213
Mg       8.01646045       4.62678225       7.73368927       0.00129298      -0.00371111       0.00779907
Mg      11.21993906       2.78018799       5.16714456      -0.02079683      -0.00501008      -0.02188111
Mg      11.21727319       4.63132365       7.73618746      -0.00536929      -0.00557541       0.00835321
Mg      -3.20306294       5.55249168       5.15576906      -0.00542011      -0.01071564      -0.01442400
Mg      -3.20752435       7.39662047       7.72916720      -0.00238545       0.01760782       0.03745855
Mg      -0.00742279       5.55823611       5.15280893       0.01673748      -0.03057757       0.01981494
Mg      -0.00168071       7.40025667       7.73840400       0.00840994       0.00748041      -0.00688328
Mg       3.21853794       5.55754684       5.16639075      -0.03523469      -0.01806840      -0.02334742
Mg       3.20856669       7.39640189       7.73507462      -0.02479845       0.01320936       0.00918266
Mg       6.40852593       5.55544182       5.16225836       0.02035356      -0.00987411      -0.02549767
Mg       6.40180695       7.38932320       7.73434480       0.03601793       0.02851629       0.00917460
Mg       9.62198678       5.54628011       5.16094187      -0.02020767       0.00566189      -0.00588850
Mg       9.61871792       7.40948089       7.73916075      -0.01794004      -0.00907994       0.00386576
Mg      -4.80382669       8.32463207       5.15321841      -0.01560567       0.01407820       0.02106257
Mg      -4.81215273      10.18507021       7.75045716       0.00499471      -0.01553176      -0.02427847
Mg      -1.61603948       8.32181713       5.16711438       0.03713262       0.01362918      -0.03398937
Mg      -1.60887537      10.16919714       7.73467242       0.00588938       0.02195996       0.01568687
Mg       1.60143070       8.31440441       5.14826799      -0.00176129       0.03288767       0.03786886
Mg       1.59529365      10.18014105       7.74409848       0.01258616      -0.02256277      -0.02087068
Mg       4.81589906       8.32677549       5.15902725      -0.02018555       0.01439321      -0.00919877
Mg       4.80824051      10.16721957       7.73913784      -0.01339172       0.03354200      -0.00871630
Mg       8.01655848       8.32260765       5.15871697      -0.00210233       0.01019187      -0.00288638
Mg       8.00919934      10.18018712       7.73352770      -0.00124264      -0.00898668       0.00178650
Mg      16.01178586       0.00310867      10.32249656       0.02433725       0.00011576      -0.01193374
Mg      -0.00675459       1.84508561      12.89459601       0.00978349       0.01289418       0.00479648
Mg      -3.21095537      11.09640834      10.32373815       0.01023118       0.01213925      -0.01437295
Mg       3.20241788       1.84915087      12.89040604       0.01686602       0.01595120       0.00894433
Mg      -0.00400856      11.09647694      10.31361616      -0.00526533       0.00233925       0.01451046
Mg       6.41010063       1.85749932      12.89594221      -0.01297572      -0.01974729      -0.00211715
Mg       9.61244822       0.00153940      10.31892051       0.00981030      -0.00702226      -0.01751407
Mg       9.61691364       1.84304754      12.89595614      -0.00070661       0.02117689       0.00092213
Mg       6.41721006      11.09433230      10.31031758      -0.02975299       0.02716430       0.01503539
Mg      12.81759995       1.85039976      12.89730451      -0.00159005      -0.00985041      -0.01523094
Mg      -1.60271967       2.77887350      10.30881662      -0.00559456      -0.01542252       0.01591950
Mg      -1.59805688       4.61091540      12.89919591      -0.00069221       0.03620088      -0.01720099
Mg       1.59823279       2.78116134      10.32376028       0.01142047      -0.02095901      -0.02542989
Mg       1.60596024       4.62604891      12.89353981      -0.00539206       0.01214547       0.00668908
Mg       4.81614768       2.77928912      10.31093598      -0.02897586      -0.01773356       0.02792006
Mg       4.81606990       4.63458019      12.89690122      -0.01945121      -0.02203535       0.01300856
Mg       8.00764262       2.76709678      10.32018423       0.01680865       0.02069513      -0.01474465
Mg       8.01601504       4.61990472      12.88891050       0.00308991       0.02317019       0.01801106
Mg      11.21214986       2.77021799      10.31324383       0.01168327       0.00504567       0.01322205
Mg      11.21656733       4.62573619      12.90612548       0.00041496      -0.00211285      -0.02098979
Mg      12.81166623       5.54709682      10.32093618       0.02093917       0.00058423      -0.00557338
Mg      -3.19977744       7.39272006      12.88415073      -0.00878460       0.01657469       0.02656966
Mg       0.00761920       5.54630586      10.30583018      -0.02386406       0.01645117       0.04407879
Mg      -0.00149513       7.40671003      12.90488668       0.01275936      -0.02960050      -0.01677726
Mg       3.21143231       5.54937435      10.31872088      -0.00418538      -0.00122254      -0.00955754
Mg       3.20837890       7.39886580      12.90431440      -0.01068815       0.00345947      -0.01625629
Mg       6.40872013       5.54702600      10.31306895       0.02136411       0.01231873       0.00163126
Mg       6.41029028       7.39791276      12.89262784       0.00439655       0.00919804      -0.00116063
Mg       9.62579768       5.54735204      10.31496005      -0.03733493       0.01124842       0.00644948
Mg       9.61465526       7.41002785      12.89278925      -0.00275115      -0.03537665       0.00050731
Mg      -4.80607827       8.32770155      10.32194703       0.00230497      -0.00074849      -0.01434332
Mg      -4.81099576      10.17473120      12.90060959       0.00375842       0.00806124      -0.00962076
Mg      -1.59313144       8.32059855      10.32217932      -0.02423583       0.00026326      -0.02463107
Mg      -1.61016649      10.17576317      12.89566876       0.02026024       0.00682297       0.00089062
Mg       1.60187586       8.32350318      10.32305553       0.01693066      -0.00953263      -0.01245269
Mg       1.60439499      10.18166302      12.89006713      -0.01886760      -0.00982532       0.02046667
Mg       4.81199801       8.32768168      10.30828396      -0.02104036      -0.00729260       0.02787732
Mg       4.80141990      10.17543558      12.89440318       0.02097402      -0.00978105      -0.01041340
Mg       8.00713459       8.33259707      10.32154715       0.01692232      -0.03138913      -0.02807841
Mg       8.01328478      10.16977640      12.90009286      -0.01842517       0.01963414      -0.00524099
120
Lattice="16.0232175 0.0 0.0 -6.409287 11.10121072 0.0 0.0 0.0 15.475392" Properties=species:S:1:pos:R:3:forces:R:3 energy=-180.54697409 stress="0.0020832929632523074 0.0003325600767622935 -1.8814217863788718e-06 0.0003325600767622935 0.005090792078795512 -1.2404368995271262e-05 -1.8814217863788718e-06 -1.2404368995271262e-05 0.002577710913006477" free_energy=-180.54511463 pbc="T T T"
Mg      -0.00073473       0.01205769      15.47504520      -0.00866804      -0.01367787       0.00634742
Mg      -0.01163225       1.85268195       2.58650084       0.05255499       0.01353834      -0.01754942
Mg      -3.21618550      11.09635005      15.46879948       0.03663336       0.00298385       0.03464779
Mg       3.20004032       1.85837354       2.57977121      -0.00163471      -0.00614146       0.00504852
Mg       6.40359943       0.00467994      15.47423227       0.00965737      -0.02604975      -0.01590168
Mg       6.40164626       1.84568296       2.58317859       0.00493324       0.01570786       0.00132347
Mg       3.21361567      11.09241279      15.47167899      -0.02120389       0.00957734       0.00667954
Mg       9.61426753       1.85379162       2.58911851       0.01204780      -0.01033459      -0.01624008
Mg       6.40113756      11.08972963      15.46504964       0.02448242       0.03092815       0.04095107
Mg      12.81955510       1.86129893       2.59798606      -0.03114761      -0.04436205      -0.05902141
Mg      14.40978371       2.78011439       0.00692586       0.02146517      -0.04735504      -0.01211867
Mg      -1.59611897       4.61052953       2.56777268      -0.04617981       0.06692691       0.03250910
Mg       1.61599459       2.77979800      15.45808386      -0.03964349      -0.02897013       0.04143352
Mg       1.59842208       4.63443065       2.58064619       0.02221485      -0.03646628       0.04823599
Mg       4.82416057       2.76727484       0.01463663      -0.03459978       0.02734213      -0.05097995
Mg       4.81073282       4.63705864       2.56705710       0.00221248      -0.00487268       0.04332502
Mg       8.02263263       2.75251012      15.46783258      -0.00914842       0.06367658       0.02606287
Mg       8.01158215       4.61872477       2.58869773      -0.01674190       0.03041859      -0.02249296
Mg      11.22182083       2.77735052      15.47373923      -0.00541164      -0.02164962       0.01759027
Mg      11.19672488       4.62165971       2.55959904       0.06912119       0.00235146       0.04929762
Mg      -3.18406011       5.56023988      15.47293838      -0.03887374      -0.00930680       0.00419177
Mg      -3.23166368       7.41213530       2.57172447       0.10031336      -0.02455452      -0.01262644
Mg      -0.00441680       5.52930380       0.01542695       0.02505339       0.04715353      -0.05107404
Mg       0.00872650       7.39628111       2.58638896      -0.06907700       0.02159347      -0.02317930
Mg       3.18953928       5.53285330       0.01737592       0.04606899       0.03745567      -0.04716114
Mg       3.19381504       7.40169195       2.58263308       0.04071833       0.00188637      -0.01343828
Mg       6.41525033       5.57262827       0.00864672       0.01220320      -0.06995000      -0.02504739
Mg       6.40675232       7.42653257       2.57198632       0.03032070      -0.04677073       0.02226311
Mg       9.62444288       5.54733683      15.47511128      -0.03750244       0.01295532      -0.01379513
Mg       9.64033372       7.39102013       2.58366436      -0.09469158       0.02498356      -0.02670300
Mg      11.21252868       8.32308989      15.45737648       0.02401753       0.00608318       0.02506040
Mg      -4.80955322      10.18535928       2.58075174       0.01142569      -0.00625296      -0.01337971
Mg      -1.58293702       8.32403638      15.46422016      -0.05900274       0.00905133       0.04923026
Mg      -1.59126464      10.17619046       2.59116033      -0.04213891      -0.00945219      -0.01562743