108
Lattice="10.9653 0.0 0.0 0.0 10.9653 0.0 0.0 0.0 10.8567" Properties=species:S:1:pos:R:3:forces:R:3 energy=-405.27481832 stress="0.01742671429449434 -7.677056224836409e-10 -1.3781252149950233e-08 -7.677056224836409e-10 0.01742676885776712 -2.011014240359586e-08 -1.3781252149950233e-08 -2.011014240359586e-08 0.015860570532674197" free_energy=-405.28705064 pbc="T T T"
Cu       0.00000000       0.00000000       0.00000000      -0.00000092       0.00000802      -0.00001751
Cu       1.82755366       1.82755366       0.00000000      -0.00557256      -0.00555092      -0.00002536
Cu       0.00000000       1.82755366       1.80945362      -0.00000401      -0.00664824      -0.01382104
Cu       1.82755366       0.00000000       1.80945362      -0.00667830       0.00000212      -0.01380619
Cu       3.65509634       0.00000000       0.00000000       0.00853155       0.00000993      -0.00003394
Cu       5.48265000       1.82755366       0.00000000       0.00003293      -0.00852840      -0.00004120
Cu       3.65509634       1.82755366       1.80945362      -0.00094846       0.00093750      -0.00017271
Cu       5.48265000       0.00000000       1.80945362       0.00001505      -0.00000708      -0.00560051
Cu       7.31020366       0.00000000       0.00000000      -0.00853158       0.00001893      -0.00002503
Cu       9.13774634       1.82755366       0.00000000       0.00553949      -0.00553820      -0.00000893
Cu       7.31020366       1.82755366       1.80945362       0.00095040       0.00093188      -0.00019857
Cu       9.13774634       0.00000000       1.80945362       0.00666260       0.00000373      -0.01383066
Cu       0.00000000       3.65509634       0.00000000      -0.00000897       0.00849948      -0.00000286
Cu       1.82755366       5.48265000       0.00000000      -0.00853143       0.00000784       0.00000954
Cu       0.00000000       5.48265000       1.80945362       0.00000300       0.00001693      -0.00556553
Cu       1.82755366       3.65509634       1.80945362       0.00090753      -0.00093522      -0.00016469
Cu       3.65509634       3.65509634       0.00000000       0.00556786       0.00553671      -0.00003204
Cu       5.48265000       5.48265000       0.00000000       0.00002434      -0.00000568      -0.00002732
Cu       3.65509634       5.48265000       1.80945362       0.00663256       0.00002454      -0.01379210
Cu       5.48265000       3.65509634       1.80945362       0.00002434       0.00667287      -0.01382617
Cu       7.31020366       3.65509634       0.00000000      -0.00555953       0.00553564      -0.00001232
Cu       9.13774634       5.48265000       0.00000000       0.00850837      -0.00000303       0.00002497
Cu       7.31020366       5.48265000       1.80945362      -0.00663729       0.00002199      -0.01380455
Cu       9.13774634       3.65509634       1.80945362      -0.00093132      -0.00094212      -0.00017641
Cu       0.00000000       7.31020366       0.00000000      -0.00000866      -0.00850577       0.00003408
Cu       1.82755366       9.13774634       0.00000000      -0.00555214       0.00554065       0.00000682
Cu       0.00000000       9.13774634       1.80945362      -0.00001537       0.00663200      -0.01379728
Cu       1.82755366       7.31020366       1.80945362       0.00093878       0.00093250      -0.00013472
Cu       3.65509634       7.31020366       0.00000000       0.00554247      -0.00554769       0.00000092
Cu       5.48265000       9.13774634       0.00000000       0.00001232       0.00853515      -0.00002767
Cu       3.65509634       9.13774634       1.80945362      -0.00094807      -0.00096111      -0.00015280
Cu       5.48265000       7.31020366       1.80945362       0.00001167      -0.00666413      -0.01380161
Cu       7.31020366       7.31020366       0.00000000      -0.00553275      -0.00555449       0.00000107
Cu       9.13774634       9.13774634       0.00000000       0.00554392       0.00554464       0.00000553
Cu       7.31020366       9.13774634       1.80945362       0.00096728      -0.00095775      -0.00017643
Cu       9.13774634       7.31020366       1.80945362      -0.00094754       0.00093704      -0.00014541
Cu       0.00000000       0.00000000       3.61889638       0.00000814      -0.00001140       0.00558179
Cu       1.82755366       1.82755366       3.61889638       0.00092805       0.00093997       0.00018839
Cu       0.00000000       1.82755366       5.42835000       0.00002124      -0.00850583       0.00000692
Cu       1.82755366       0.00000000       5.42835000      -0.00850819      -0.00000932       0.00001598
Cu       3.65509634       0.00000000       3.61889638       0.00665437      -0.00001697       0.01383861
Cu       5.48265000       1.82755366       3.61889638       0.00000436      -0.00667025       0.01382149
Cu       3.65509634       1.82755366       5.42835000       0.00553126      -0.00555248       0.00004432
Cu       5.48265000       0.00000000       5.42835000      -0.00001353      -0.00001607       0.00004810
Cu       7.31020366       0.00000000       3.61889638      -0.00666596      -0.00000705       0.01381493
Cu       9.13774634       1.82755366       3.61889638      -0.00093235       0.00095603       0.00015238
Cu       7.31020366       1.82755366       5.42835000      -0.00554961      -0.00554129       0.00004096
Cu       9.13774634       0.00000000       5.42835000       0.00852389      -0.00001390       0.00000905
Cu       0.00000000       3.65509634       3.61889638       0.00000152       0.00669459       0.01383751
Cu       1.82755366       5.48265000       3.61889638      -0.00668567       0.00003044       0.01384132
Cu       0.00000000       5.48265000       5.42835000       0.00001105      -0.00001226      -0.00002265
Cu       1.82755366       3.65509634       5.42835000      -0.00554752       0.00557084       0.00001399
Cu       3.65509634       3.65509634       3.61889638      -0.00096439      -0.00092229       0.00018771
Cu       5.48265000       5.48265000       3.61889638      -0.00000058       0.00002141       0.00558740
Cu       3.65509634       5.48265000       5.42835000       0.00850062       0.00000690       0.00000594
Cu       5.48265000       3.65509634       5.42835000      -0.00001792       0.00851705       0.00004116
Cu       7.31020366       3.65509634       3.61889638       0.00096119      -0.00093212       0.00014773
Cu       9.13774634       5.48265000       3.61889638       0.00668264       0.00001765       0.01380260
Cu       7.31020366       5.48265000       5.42835000      -0.00850989      -0.00000317       0.00000190
Cu       9.13774634       3.65509634       5.42835000       0.00556585       0.00557064       0.00001551
Cu       0.00000000       7.31020366       3.61889638       0.00001003      -0.00668203       0.01381265
Cu       1.82755366       9.13774634       3.61889638       0.00093710      -0.00096878       0.00017834
Cu       0.00000000       9.13774634       5.42835000       0.00002317       0.00852050      -0.00002149
Cu       1.82755366       7.31020366       5.42835000      -0.00555089      -0.00556278      -0.00002358
Cu       3.65509634       7.31020366       3.61889638      -0.00097304       0.00093888       0.00018594
Cu       5.48265000       9.13774634       3.61889638      -0.00001081       0.00664669       0.01383398
Cu       3.65509634       9.13774634       5.42835000       0.00555019       0.00554695       0.00002245
Cu       5.48265000       7.31020366       5.42835000      -0.00001866      -0.00850185      -0.00000348
Cu       7.31020366       7.31020366       3.61889638       0.00096205       0.00093832       0.00015743
Cu       9.13774634       9.13774634       3.61889638      -0.00092520      -0.00097267       0.00015954
Cu       7.31020366       9.13774634       5.42835000      -0.00557323       0.00554130       0.00000185
Cu       9.13774634       7.31020366       5.42835000       0.00556768      -0.00555853      -0.00003184
Cu       0.00000000       0.00000000       7.23780362       0.00002445       0.00000753      -0.00556655
Cu       1.82755366       1.82755366       7.23780362       0.00096373       0.00093428      -0.00016334
Cu       0.00000000       1.82755366       9.04724638       0.00000500      -0.00665902       0.01381497
Cu       1.82755366       0.00000000       9.04724638      -0.00666328       0.00002177       0.01379053
Cu       3.65509634       0.00000000       7.23780362       0.00667634       0.00000090      -0.01380839
Cu       5.48265000       1.82755366       7.23780362      -0.00000917      -0.00666840      -0.01378557
Cu       3.65509634       1.82755366       9.04724638      -0.00091975       0.00092820       0.00013511
Cu       5.48265000       0.00000000       9.04724638       0.00001275       0.00000774       0.00555458
Cu       7.31020366       0.00000000       7.23780362      -0.00670330       0.00000332      -0.01378856
Cu       9.13774634       1.82755366       7.23780362      -0.00095408       0.00094776      -0.00014527
Cu       7.31020366       1.82755366       9.04724638       0.00091380       0.00093097       0.00015735
Cu       9.13774634       0.00000000       9.04724638       0.00664842       0.00001725       0.01382218
Cu       0.00000000       3.65509634       7.23780362       0.00000049       0.00666976      -0.01383718
Cu       1.82755366       5.48265000       7.23780362      -0.00664428      -0.00001684      -0.01385453
Cu       0.00000000       5.48265000       9.04724638      -0.00000283      -0.00002317       0.00558365
Cu       1.82755366       3.65509634       9.04724638       0.00093711      -0.00095732       0.00015282
Cu       3.65509634       3.65509634       7.23780362      -0.00093892      -0.00095056      -0.00015924
Cu       5.48265000       5.48265000       7.23780362      -0.00001941      -0.00002300      -0.00555952
Cu       3.65509634       5.48265000       9.04724638       0.00667732      -0.00001408       0.01379017
Cu       5.48265000       3.65509634       9.04724638       0.00000560       0.00664858       0.01378788
Cu       7.31020366       3.65509634       7.23780362       0.00093710      -0.00094967      -0.00013286
Cu       9.13774634       5.48265000       7.23780362       0.00666461      -0.00002285      -0.01382409
Cu       7.31020366       5.48265000       9.04724638      -0.00667506      -0.00002120       0.01380287
Cu       9.13774634       3.65509634       9.04724638      -0.00094394      -0.00095762       0.00016267
Cu       0.00000000       7.31020366       7.23780362       0.00001095      -0.00667742      -0.01384411
Cu       1.82755366       9.13774634       7.23780362       0.00095337      -0.00091514      -0.00018472
Cu       0.00000000       9.13774634       9.04724638       0.00000384       0.00667778       0.01382063
Cu       1.82755366       7.31020366       9.04724638       0.00095025       0.00093312       0.00015307
Cu       3.65509634       7.31020366       7.23780362      -0.00093049       0.00094792      -0.00018699
Cu       5.48265000       9.13774634       7.23780362      -0.00001122       0.00669007      -0.01381011
Cu       3.65509634       9.13774634       9.04724638      -0.00091100      -0.00091328       0.00013057
Cu       5.48265000       7.31020366       9.04724638       0.00000243      -0.00665629       0.01380923
Cu       7.31020366       7.31020366       7.23780362       0.00092013       0.00094693      -0.00015642
Cu       9.13774634       9.13774634       7.23780362      -0.00094325      -0.00092214      -0.00016470
Cu       7.31020366       9.13774634       9.04724638       0.00090715      -0.00090954       0.00017328
Cu       9.13774634       7.31020366       9.04724638      -0.00095114       0.00093953       0.00017302
108
Lattice="10.9653 0.0 0.0 0.0 10.9653 0.0 0.0 0.0 10.8567" Properties=species:S:1:pos:R:3:forces:R:3 energy=-405.25649311 stress="0.017345198780970753 2.32013122132808e-06 9.37942159741194e-06 2.32013122132808e-06 0.017351608891982655 1.2347883337682018e-05 9.37942159741194e-06 1.2347883337682018e-05 0.015641448623489988" free_energy=-405.26870655 pbc="T T T"
Cu       0.00185675       0.00408370       0.00002975      -0.03525511      -0.01028392       0.00269787
Cu       1.82895974       1.82612795      10.85566438      -0.01817587       0.00529439       0.01706979
Cu      10.96297393       1.82829458       1.80430396       0.00646246      -0.01044793       0.00383172
Cu       1.82638015      10.96137278       1.80555867       0.01151683       0.02295537       0.01800348
Cu       3.65779644       0.00307193      10.85114061      -0.03175818      -0.03482614       0.05678312
Cu       5.48090487       1.82291665      10.85655691       0.02384985       0.04699582      -0.01483752
Cu       3.65603256       1.82819896       1.81548300      -0.01538913      -0.01464795      -0.01102869
Cu       5.48544736       0.00215534       1.80620671      -0.03505235      -0.02258979       0.02478043
Cu       7.30776048      10.95770094      10.85376685       0.01887343       0.05049883       0.01324978
Cu       9.13043567       1.83119644       0.00020888       0.03626623      -0.03469295      -0.01579314
Cu       7.30485697       1.83013927       1.80815288       0.02970903      -0.02676993       0.02299323
Cu       9.13884046       0.00338828       1.81169053      -0.02142338      -0.00706969      -0.02181507
Cu      10.96447859       3.65616535      10.84923515      -0.00762338      -0.01260691       0.06342926
Cu       1.82933146       5.48192837       0.00093585      -0.00723839      -0.00861976      -0.00058184
Cu      10.96334127       5.48631241       1.80592660      -0.00374690      -0.03982163       0.00586124
Cu       1.82446703       3.65233221       1.81239014       0.00719825       0.01545584      -0.04302087
Cu       3.65628126       3.64874327       0.00118968      -0.00468127       0.05224415       0.00631065
Cu       5.48961516       5.47634210      10.85395282      -0.03428258       0.02547322       0.03572186
Cu       3.65508121       5.48449217       1.81305728       0.02668275      -0.03882689      -0.03076500
Cu       5.48972689       3.65256183       1.81025995      -0.05134981       0.03050924       0.00816249
Cu       7.31029006       3.65925241       0.00204334      -0.01134872      -0.01388256      -0.03712136
Cu       9.13776246       5.48408097      10.85442433       0.00622670      -0.01095954       0.00726134
Cu       7.31336013       5.48383579       1.80789514      -0.01735995      -0.00811846       0.00149291
Cu       9.13625792       3.64687544       1.81035744       0.00985617       0.05557992      -0.01114150
Cu       0.00632961       7.31246075      10.85445125      -0.05751135      -0.02400351       0.00505301
Cu       1.82240907       9.13784416      10.85622708       0.04210464       0.00901471       0.01100407
Cu      10.96261087       9.13628884       1.80977476      -0.00640873       0.01376556      -0.02706532
Cu       1.82375385       7.30573420       1.80969952       0.02841296       0.01214103       0.00489900
Cu       3.66192115       7.30482978      10.85450467      -0.02617966       0.03171657       0.03583714
Cu       5.48345222       9.13940408       0.00246903      -0.02108082      -0.01047823      -0.01713895
Cu       3.65695540       9.13226995       1.80996399      -0.01556938       0.02634826      -0.02483452
Cu       5.48750478       7.30621536       1.81070409      -0.00867543      -0.01691620      -0.02131237
Cu       7.31500382       7.32051630      10.85550869      -0.03506546      -0.04854967       0.01306751
Cu       9.13187410       9.14231701       0.00113735       0.04875936      -0.00635653       0.01105501
Cu       7.30571972       9.13848343       1.81373311       0.03533352      -0.00430557       0.00666776
Cu       9.13809329       7.30269539       1.80899243       0.00817606       0.05663474       0.00244291
Cu      10.95989729      10.96469307       3.61828102       0.05418555       0.00566642       0.00811811
Cu       1.82055045       1.83355584       3.61384302       0.02288367      -0.06051187       0.01620814
Cu       0.00695858       1.82860632       5.43159148      -0.04873652      -0.03036539      -0.03024926
Cu       1.83179065      10.95984926       5.42744553      -0.04970271       0.02681568      -0.00241819
Cu       3.65594199      10.96199243       3.62557401      -0.00633005       0.01889162      -0.05559605
Cu       5.48097121       1.82342105       3.61811622       0.02302076       0.02127923       0.03128981
Cu       3.65641591       1.82213735       5.42482016      -0.01119644       0.01781852       0.02614577
Cu       5.48284573      10.96456938       5.43224593      -0.00120553       0.00267334      -0.03141707
Cu       7.30742856      10.95993961       3.62129148      -0.00070058       0.04568454      -0.01103017
Cu       9.13786861       1.83512015       3.62191248      -0.01999465      -0.04132137      -0.00057745
Cu       7.30580657       1.82281654       5.43249617       0.03873217       0.00801192      -0.05129265
Cu       9.14248653      10.95739731       5.41589150      -0.03026840       0.07335804       0.08523790
Cu      10.96080554       3.65659059       3.61991268      -0.00143253      -0.00016683       0.00029587
Cu       1.82121396       5.46883811       3.61778270       0.01454497       0.10817534       0.00604344
Cu       0.00195555       5.48142693       5.43204790       0.00840853       0.03292211      -0.00244997
Cu       1.82872837       3.65717032       5.41895472       0.00121894      -0.00426639       0.09287219
Cu       3.64980515       3.65597280       3.62500849       0.05432232      -0.01615142      -0.04195548
Cu       5.48098920       5.47899000       3.63137865       0.01718721       0.01232237      -0.07751492
Cu       3.65669783       5.48241107       5.42665646      -0.00941838       0.00817182       0.03646353
Cu       5.48441958       3.65804338       5.43120064      -0.01959115      -0.02118638      -0.01864480
Cu       7.31296790       3.66340585       3.62404278      -0.02101229      -0.06581317      -0.02334194
Cu       9.13758285       5.48079303       3.62313657       0.04043031       0.00982063      -0.02557385
Cu       7.31588116       5.47721110       5.42630731      -0.03816670       0.06578498       0.03941117
Cu       9.13834132       3.65657754       5.42839994       0.00745657      -0.03078329       0.01624993
Cu       0.00041087       7.31734601       3.61797465       0.00811417      -0.05312546       0.01661682
Cu       1.82790268       9.13692680       3.61573361      -0.00541105       0.00490206       0.00968043
Cu      10.96156829       9.13436410       5.43751197       0.05287516       0.01145448      -0.05215964
Cu       1.83361341       7.30866566       5.41984519      -0.02950888      -0.00011111       0.04530263
Cu       3.66020179       7.31046474       3.61599580      -0.04228507      -0.02308453       0.00884729
Cu       5.47663926       9.13372734       3.62095079       0.04544233       0.02642923      -0.00710041
Cu       3.65838933       9.14296769       5.42706381      -0.02033292      -0.03041803       0.01602537
Cu       5.48171959       7.31312075       5.42762922       0.02785334      -0.02696801       0.01011128
Cu       7.31726301       7.30770806       3.61700493      -0.03764633       0.00887649       0.01687200
Cu       9.13882555       9.13891064       3.62546794      -0.00374956      -0.01966455      -0.07287200
Cu       7.31224627       9.14096400       5.42464070      -0.01152200      -0.02849582       0.02511927
Cu       9.14317274       7.31052713       5.41952622      -0.01412452      -0.02289069       0.09281537
Cu      10.95970189      10.96325409       7.23405024       0.03974424       0.01587625      -0.00102347
Cu       1.82245106       1.82892651       7.23431547       0.05051393      -0.00421768       0.01689996
Cu      10.96422968       1.82834579       9.04323179      -0.00662590      -0.00813613       0.03480952
Cu       1.82165509       0.00089247       9.04813044       0.00674833      -0.00140463      -0.00874128
Cu       3.65674322      10.96356606       7.24136614      -0.01439495       0.04959406      -0.02720194
Cu       5.49006517       1.82975724       7.22873502      -0.05888135      -0.02447313       0.07370236
Cu       3.65057963       1.82758633       9.05393585       0.01376501       0.00753173      -0.07137544
Cu       5.47921523       0.00141617       9.04976427       0.03222462       0.01299170      -0.02386590
Cu       7.30555086      10.96460052       7.23678580       0.03991309      -0.00013308      -0.00613726
Cu       9.13565844       1.82508460       7.24105596       0.00579934       0.00801294      -0.05261650
Cu       7.31757354       1.82729981       9.04739523      -0.05729823       0.00702719      -0.00128930
Cu       9.14362934      10.96384918       9.04105481      -0.02878748       0.01388092       0.06121973
Cu      10.96496062       3.65318597       7.23220145       0.01851820       0.01838001       0.01136798
Cu       1.83484481       5.48591141       7.24174970      -0.03361323      -0.01957617      -0.03278349
Cu      10.96146960       5.47650362       9.04707908       0.02134112       0.05359359      -0.00396827
Cu       1.81860301       3.65893782       9.05065886       0.06611265      -0.01951023      -0.03616026
Cu       3.66205810       3.65140981       7.24135126      -0.05498689       0.00596193      -0.02218953
Cu       5.48578103       5.49089349       7.24180138      -0.01110849      -0.02404080      -0.05070321
Cu       3.65730509       5.48609727       9.04580320      -0.01123856      -0.04345166       0.03544612
Cu       5.47723457       3.65980452       9.04375346       0.05133041      -0.03950908       0.02988813
Cu       7.30623334       3.65663401       7.23350936       0.02444667       0.00511159       0.04248269
Cu       9.14115228       5.47284285       7.23758757      -0.02035459       0.09142665      -0.00923490
Cu       7.30576326       5.49106762       9.04923598       0.02580540      -0.04174319      -0.00658218
Cu       9.13589847       3.65649563       9.04595595      -0.01426726      -0.00893136      -0.00337200
Cu       0.00302039       7.31309740       7.24627521      -0.00321740      -0.03745391      -0.03982696
Cu       1.82777954       9.13763285       7.23912162      -0.00211902      -0.01026317      -0.00396413
Cu      10.96186051       9.13944465       9.05082084       0.02007942       0.00235257       0.00467636
Cu       1.83133526       7.31251942       9.05602902      -0.00725555      -0.00853687      -0.04074744
Cu       3.65783460       7.31302437       7.24089658      -0.01910866       0.00720788      -0.02904953
Cu       5.48399610       9.14548949       7.23057762      -0.00291196      -0.04822502       0.03299393
Cu       3.65498549       9.14515154       9.04026835       0.00108662      -0.03353153       0.04971499
Cu       5.47376548       7.30829745       9.05331148       0.06280228       0.04416325      -0.02137071
Cu       7.30826576       7.31367713       7.23732104       0.03000166      -0.01201134      -0.01635288
Cu       9.14037001       9.13929717       7.24127570      -0.03575082      -0.02321111      -0.02725062
Cu       7.30797825       9.13953128       9.04378375      -0.00875047      -0.00676548      -0.00408608
Cu       9.13438109       7.31272315       9.04973083       0.02353935      -0.01405264      -0.02461518
108
Lattice="10.9653 0.0 0.0 0.0 10.9653 0.0 0.0 0.0 10.8567" Properties=species:S:1:pos:R:3:forces:R:3 energy=-405.20108762 stress="0.01713714696216843 -8.908786843283839e-06 2.853803969325777e-05 -8.908786843283839e-06 0.017124223661621415 7.793266883251228e-06 2.853803969325777e-05 7.793266883251228e-06 0.01540039267810542" free_energy=-405.21324312 pbc="T T T"
Cu       0.00370825       0.00816586       0.00005982      -0.07275329      -0.01839518       0.00413828
Cu       1.83036307       1.82470312      10.85463136      -0.03385085       0.01908526       0.03752824
Cu      10.96064885       1.82903397       1.79915474       0.01157063      -0.01282992       0.01992784
Cu       1.82520851      10.95744895       1.80166643       0.03166577       0.04387467       0.04726548
Cu       3.66049171       0.00613859      10.84558980      -0.05915722      -0.07075877       0.10449939
Cu       5.47916336       1.81828688      10.85641143       0.04955080       0.08358281      -0.02872451
Cu       3.65696648       1.82884219       1.82151074      -0.02290771      -0.03035451      -0.02601412
Cu       5.48823945       0.00430728       1.80296359      -0.06551908      -0.04306299       0.05774839
Cu       7.30532015      10.95010955      10.85083575       0.04869925       0.10261640       0.01921516
Cu       9.12313059       1.83483396       0.00041538       0.06372445      -0.06736404      -0.02794490
Cu       7.29951490       1.83272083       1.80685561       0.05966832      -0.05314248       0.04955970
Cu       9.13993129       0.00677557       1.81392397      -0.04927618      -0.01400432      -0.02559471
Cu      10.96365597       3.65723249      10.84177985      -0.02283040      -0.01913618       0.11868945
Cu       1.83110817       5.48120543       0.00187148      -0.00534847      -0.01920908       0.00473443
Cu      10.96138199       5.48996890       1.80240035      -0.01091248      -0.07185891       0.02054846
Cu       1.82138140       3.64957049       1.81532004       0.01207285       0.02479787      -0.08465704
Cu       3.65746540       3.64239820       0.00238033      -0.01047571       0.09797644       0.02176691
Cu       5.49657505       5.47003815      10.85121107      -0.07263459       0.05526064       0.07483512
Cu       3.65507003       5.48632853       1.81665628       0.04387693      -0.06660486      -0.04230002
Cu       5.49679611       3.65003191       1.81106758      -0.10754591       0.05750013       0.02909896
Cu       7.31037471       3.66340640       0.00408103      -0.01770531      -0.03631981      -0.07057140
Cu       9.13777957       5.48551019      10.85214974       0.00432089      -0.01919807       0.01592433
Cu       7.31651397       5.48502037       1.80633688      -0.03208281      -0.01665030       0.02003066
Cu       9.13477102       3.63866309       1.81125963       0.02220045       0.11975448      -0.02687983
Cu       0.01265045       7.31471412      10.85220315      -0.11044322      -0.03712267       0.00520286
Cu       1.81727073       9.13794339      10.85575579       0.10113435       0.01779231       0.02102726
Cu      10.95992064       9.13483352       1.81009178      -0.01100171       0.02488535      -0.03837703
Cu       1.81995843       7.30126650       1.80994619       0.06429857       0.02953502       0.01186833
Cu       3.66874200       7.29946073      10.85231476      -0.05538595       0.06276199       0.07583476
Cu       5.48425126       9.14106017       0.00493535      -0.04160719      -0.03090518      -0.03659843
Cu       3.65881205       9.12679749       1.81047067      -0.02621378       0.04971104      -0.04934978
Cu       5.49235813       7.30222443       1.81195131      -0.02064998      -0.02008988      -0.02777581
Cu       7.31979862       7.33082149      10.85431934      -0.07377680      -0.08858432       0.02949890
Cu       9.12600920       9.14688669       0.00227622       0.08878146      -0.01478563       0.02366224
Cu       7.30124106       9.13921975       1.81801358       0.06591292      -0.00918437       0.01361326
Cu       9.13844144       7.29519567       1.80853156       0.01663679       0.11182621       0.00113877
Cu      10.95450280      10.96408702       3.61766686       0.10461058       0.01617652       0.00596340
Cu       1.81355064       1.83954893       3.60879205       0.04667823      -0.13389963       0.03782521
Cu       0.01390970       1.82965439       5.43482841      -0.09459485      -0.05057821      -0.05821431
Cu       1.83601996      10.95440258       5.42654073      -0.08971316       0.05079911      -0.00241158
Cu       3.65678665      10.95868760       3.63224317      -0.01855180       0.04146704      -0.12363727
Cu       5.47929593       1.81929174       3.61734072       0.04374538       0.05576602       0.04778445
Cu       3.65773383       1.81672367       5.42129434      -0.03435262       0.05160678       0.05477518
Cu       5.48304135      10.96383931       5.43613697      -0.00251619       0.01323842      -0.06563668
Cu       7.30465335      10.95458613       3.62368495       0.00844302       0.09628754      -0.03315698
Cu       9.13798780       1.84268040       3.62492847      -0.03921758      -0.08489909       0.00264947
Cu       7.30141541       1.81808062       5.43663453       0.09316925       0.03156692      -0.10179641
Cu       9.14722201      10.94950569       5.40344592      -0.06457209       0.14354757       0.16006949
Cu      10.95631087       3.65808483       3.62092886      -0.00015009      -0.00989209      -0.01425656
Cu       1.81487634       5.45504255       3.61666978       0.03501621       0.19383241      -0.00641070
Cu       0.00391231       5.48020880       5.43574537       0.01622860       0.06712153      -0.00317079
Cu       1.82990330       3.65924353       5.40957345       0.00557310      -0.02025332       0.17674508
Cu       3.64452207       3.65684685       3.63111429       0.10672027      -0.03252399      -0.09029667
Cu       5.47933102       5.47533198       3.64384920       0.03848547       0.03570659      -0.15064258
Cu       3.65829799       5.48217345       5.42496846      -0.02511229       0.01704224       0.06909691
Cu       5.48618609       3.66098723       5.43404846      -0.03796338      -0.03941388      -0.03630173
Cu       7.31572885       3.67170527       3.62918560      -0.03848867      -0.13259697      -0.05441483
Cu       9.13742539       5.47893748       3.62737275       0.07409448       0.01697848      -0.06278140
Cu       7.32155285       5.47178207       5.42427049      -0.05960656       0.12925068       0.08073081