108
Lattice="10.8568 0.0 0.0 -0.05421198 10.85666465 0.0 -0.05421198 -0.05448336 10.85652794" Properties=species:S:1:pos:R:3:forces:R:3 energy=-405.2329968 stress="-0.0005782598422497216 -0.0024650080638600217 -0.002477444052340525 -0.0024650080638600217 -0.000602863003654185 -0.002489812282997957 -0.002477444052340525 -0.002489812282997957 -0.0006278817497022861" free_energy=-405.24391098 pbc="T T T"
Cu       0.00000000       0.00000000       0.00000000       0.00002901      -0.00002479       0.00001518
Cu       1.80043494       1.80944773       0.00000000      -0.00878838      -0.00887002       0.00035513
Cu      -0.01807070       1.80036715       1.80942494       0.00046031      -0.00883684      -0.00885145
Cu       1.80043494      -0.00908058       1.80942494      -0.00878145       0.00040492      -0.00887033
Cu       3.61892971       0.00000000       0.00000000       0.00418213      -0.00347042      -0.00345281
Cu       5.41936465       1.80944773       0.00000000       0.00345390      -0.00417105       0.00351725
Cu       3.60085902       1.80036715       1.80942494      -0.00500716       0.00529510       0.00534090
Cu       5.41936465      -0.00908058       1.80942494       0.00347298       0.00350723      -0.00412797
Cu       7.23787029       0.00000000       0.00000000      -0.00421421       0.00344711       0.00354755
Cu       9.03829437       1.80944773       0.00000000       0.00808631      -0.00802697       0.00002313
Cu       7.21979959       1.80036715       1.80942494       0.00448895       0.00452379       0.00461239
Cu       9.03829437      -0.00908058       1.80942494       0.00805396       0.00001275      -0.00799403
Cu      -0.01807064       3.61888460       0.00000000      -0.00346910       0.00422153      -0.00352040
Cu       1.78236430       5.42833233       0.00000000      -0.00422536       0.00349280       0.00341880
Cu      -0.03614134       5.41925175       1.80942494       0.00345726       0.00353942      -0.00421511
Cu       1.78236430       3.60980402       1.80942494       0.00536976      -0.00502135       0.00531540
Cu       3.60085907       3.61888460       0.00000000       0.00882045       0.00884906      -0.00039424
Cu       5.40129401       5.42833233       0.00000000       0.00001028      -0.00001832      -0.00000520
Cu       3.58278838       5.41925175       1.80942494       0.00809537       0.00004292      -0.00808461
Cu       5.40129401       3.60980402       1.80942494       0.00001379       0.00805357      -0.00805276
Cu       7.21979964       3.61888460       0.00000000      -0.00810010       0.00807032       0.00000007
Cu       9.02022372       5.42833233       0.00000000       0.00421258      -0.00342546      -0.00349844
Cu       7.20172895       5.41925175       1.80942494      -0.00880309       0.00043438      -0.00885821
Cu       9.02022372       3.60980402       1.80942494      -0.00538483      -0.00537367       0.00499097
Cu      -0.03614134       7.23778005       0.00000000       0.00348689      -0.00420056       0.00345009
Cu       1.76429365       9.04721692       0.00000000      -0.00806723       0.00802103      -0.00000702
Cu      -0.05421198       9.03813634       1.80942494      -0.00001739       0.00806831      -0.00804384
Cu       1.76429360       7.22869947       1.80942494       0.00450193       0.00456426       0.00450940
Cu       3.58278838       7.23778005       0.00000000       0.00803970      -0.00802399      -0.00001764
Cu       5.38322337       9.04721692       0.00000000      -0.00350601       0.00418829      -0.00343864
Cu       3.56471773       9.03813634       1.80942494      -0.00534965      -0.00534711       0.00496847
Cu       5.38322331       7.22869947       1.80942494       0.00048891      -0.00879242      -0.00885330
Cu       7.20172895       7.23778005       0.00000000      -0.00877979      -0.00886977       0.00039796
Cu       9.00215308       9.04721692       0.00000000       0.00882511       0.00880993      -0.00033581
Cu       7.18365831       9.03813634       1.80942494       0.00536613      -0.00501104       0.00539595
Cu       9.00215303       7.22869947       1.80942494      -0.00505054       0.00534549       0.00535518
Cu      -0.01807064      -0.01816110       3.61883903      -0.00350933      -0.00351957       0.00417196
Cu       1.78236430       1.79128663       3.61883903       0.00536144       0.00534052      -0.00498672
Cu      -0.03614134       1.78220605       5.42826397       0.00346952      -0.00419948       0.00349853
Cu       1.78236430      -0.02724168       5.42826397      -0.00420568       0.00346943       0.00347410
Cu       3.60085907      -0.01816110       3.61883903       0.00884664      -0.00043184       0.00882334
Cu       5.40129401       1.79128663       3.61883903       0.00003636      -0.00811874       0.00801213
Cu       3.58278838       1.78220605       5.42826397       0.00808606      -0.00806801       0.00000484
Cu       5.40129401      -0.02724168       5.42826397       0.00000465       0.00000432      -0.00004751
Cu       7.21979964      -0.01816110       3.61883903      -0.00808565      -0.00003985       0.00801612
Cu       9.02022372       1.79128663       3.61883903      -0.00539942       0.00498698      -0.00534190
Cu       7.20172895       1.78220605       5.42826397      -0.00880179      -0.00884230       0.00034050
Cu       9.02022372      -0.02724168       5.42826397       0.00420265      -0.00344818      -0.00353283
Cu      -0.03614128       3.60072350       3.61883903      -0.00050025       0.00879851       0.00886480
Cu       1.76429365       5.41017122       3.61883903      -0.00809953      -0.00002014       0.00803584
Cu      -0.05421198       5.40109065       5.42826397      -0.00002169       0.00002277       0.00004221
Cu       1.76429365       3.59164292       5.42826397      -0.00809922       0.00802671       0.00006317
Cu       3.58278843       3.60072350       3.61883903      -0.00448488      -0.00457351      -0.00458818
Cu       5.38322337       5.41017122       3.61883903      -0.00343344      -0.00350148       0.00414988
Cu       3.56471773       5.40109065       5.42826397       0.00419801      -0.00346706      -0.00344235
Cu       5.38322337       3.59164292       5.42826397      -0.00343492       0.00416863      -0.00347822
Cu       7.20172900       3.60072350       3.61883903       0.00504478      -0.00535549      -0.00534965
Cu       9.00215308       5.41017122       3.61883903       0.00878298      -0.00039077       0.00885426
Cu       7.18365831       5.40109065       5.42826397      -0.00417901       0.00343978       0.00346707
Cu       9.00215308       3.59164292       5.42826397       0.00878194       0.00884207      -0.00035947
Cu      -0.05421198       7.21961895       3.61883903      -0.00004914      -0.00804958       0.00803942
Cu       1.74622301       9.02905582       3.61883903       0.00503375      -0.00530754      -0.00537483
Cu      -0.07228262       9.01997524       5.42826397      -0.00349846       0.00417884      -0.00350034
Cu       1.74622296       7.21053837       5.42826397      -0.00884864      -0.00884828       0.00041101
Cu       3.56471773       7.21961895       3.61883903      -0.00534103       0.00505703      -0.00538284
Cu       5.36515273       9.02905582       3.61883903      -0.00044419       0.00885115       0.00882716
Cu       3.54664709       9.01997524       5.42826397       0.00881803       0.00888894      -0.00039171
Cu       5.36515267       7.21053837       5.42826397       0.00350151      -0.00417250       0.00344845
Cu       7.18365831       7.21961895       3.61883903       0.00538899       0.00540417      -0.00501202
Cu       8.98408244       9.02905582       3.61883903      -0.00453303      -0.00454341      -0.00458242
Cu       7.16558766       9.01997524       5.42826397      -0.00806904       0.00804940      -0.00006216
Cu       8.98408239       7.21053837       5.42826397       0.00809825      -0.00804018      -0.00002084
Cu      -0.03614134      -0.03632226       7.23768891       0.00350663       0.00352353      -0.00418959
Cu       1.76429360       1.77312547       7.23768891       0.00450453       0.00456187       0.00458470
Cu      -0.05421198       1.76404495       9.04710300       0.00004565      -0.00804165       0.00801875
Cu       1.76429365      -0.04540278       9.04710300      -0.00805761      -0.00003441       0.00805737
Cu       3.58278838      -0.03632226       7.23768891       0.00806840       0.00004720      -0.00803388
Cu       5.38322331       1.77312547       7.23768891       0.00046707      -0.00879893      -0.00886468
Cu       3.56471773       1.76404495       9.04710300      -0.00538110       0.00502180      -0.00534332
Cu       5.38322337      -0.04540278       9.04710300      -0.00353036      -0.00348931       0.00417725
Cu       7.20172895      -0.03632226       7.23768891      -0.00882254       0.00044705      -0.00889890
Cu       9.00215303       1.77312547       7.23768891      -0.00502868       0.00536987       0.00531893
Cu       7.18365831       1.76404495       9.04710300       0.00533525       0.00543699      -0.00500206
Cu       9.00215308      -0.04540278       9.04710300       0.00883680      -0.00042827       0.00886427
Cu      -0.05421198       3.58256234       7.23768891       0.00001505       0.00809094      -0.00800713
Cu       1.74622296       5.39201007       7.23768891      -0.00883986       0.00041759      -0.00879121
Cu      -0.07228262       5.38292954       9.04710300      -0.00345887      -0.00347921       0.00416633
Cu       1.74622301       3.57348182       9.04710300       0.00502831      -0.00530156      -0.00538196
Cu       3.56471773       3.58256234       7.23768891      -0.00538586      -0.00538535       0.00502988
Cu       5.36515267       5.39201007       7.23768891       0.00349336       0.00346750      -0.00414646
Cu       3.54664709       5.38292954       9.04710300       0.00876499      -0.00042315       0.00886596
Cu       5.36515273       3.57348182       9.04710300      -0.00046995       0.00882233       0.00886721
Cu       7.18365831       3.58256234       7.23768891       0.00536840      -0.00500658       0.00535060
Cu       8.98408239       5.39201007       7.23768891       0.00810183       0.00003885      -0.00802121
Cu       7.16558766       5.38292954       9.04710300      -0.00805596      -0.00006078       0.00805420
Cu       8.98408244       3.57348182       9.04710300      -0.00450163      -0.00448770      -0.00458168
Cu      -0.07228268       7.20145779       7.23768891       0.00047186      -0.00884430      -0.00882688
Cu       1.72815232       9.01089466       7.23768891       0.00535900      -0.00502931       0.00537779
Cu      -0.09035326       9.00181414       9.04710300      -0.00043167       0.00875523       0.00887783
Cu       1.72815232       7.19237727       9.04710300       0.00533524       0.00535637      -0.00497401
Cu       3.54664704       7.20145779       7.23768891      -0.00508820       0.00532588       0.00539640
Cu       5.34708203       9.01089466       7.23768891      -0.00002400       0.00810132      -0.00805396
Cu       3.52857645       9.00181414       9.04710300      -0.00456100      -0.00454729      -0.00453388
Cu       5.34708203       7.19237727       9.04710300      -0.00001940      -0.00810195       0.00806751
Cu       7.16558761       7.20145779       7.23768891       0.00455900       0.00451259       0.00456542
Cu       8.96601174       9.01089466       7.23768891      -0.00533225      -0.00542262       0.00496332
Cu       7.14751702       9.00181414       9.04710300       0.00505036      -0.00536253      -0.00533397
Cu       8.96601174       7.19237727       9.04710300      -0.00531538       0.00497306      -0.00533445
108
Lattice="10.8568 0.0 0.0 -0.05421198 10.85666465 0.0 -0.05421198 -0.05448336 10.85652794" Properties=species:S:1:pos:R:3:forces:R:3 energy=-405.2127011 stress="-0.0006009643615441278 -0.0025190054876626494 -0.002511799446923998 -0.0025190054876626494 -0.0006053125650502565 -0.0025334552054399823 -0.002511799446923998 -0.0025334552054399823 -0.000645839457751748" free_energy=-405.22360679 pbc="T T T"
Cu       0.00010501       0.00232672       0.00040517      -0.00528359      -0.02929816      -0.01714134
Cu       1.80061008       1.80739907       0.00237997      -0.01956904      -0.01850948      -0.03021038
Cu      -0.01736829       1.79885004       1.80964153      -0.01238374       0.03125852      -0.01132885
Cu       1.74254273      10.84215841       1.80826644       0.02390455       0.04406132       0.01508848
Cu       3.56271278      -0.04687395      10.85333189       0.01867223      -0.06617553       0.01803393
Cu       5.41869084       1.80345900       0.00038432      -0.00098850       0.03128980      -0.00602292
Cu       3.59101740       1.80055741       1.80459118       0.04740570      -0.01015238       0.04466956
Cu       5.41978478      -0.00498882       1.81245619      -0.01714233      -0.02495016      -0.02750459
Cu       7.18212024      10.85559941       0.00131679       0.00773937       0.01877719      -0.01640743
Cu       9.04523894       1.80548307       0.00119324      -0.04112150      -0.00011472       0.01214806
Cu       7.21971456       1.80077018       1.80900697       0.00977696      -0.01691934       0.00433147
Cu       8.98128535      10.84322616       1.81235392       0.03293445       0.02787746      -0.03547191
Cu      -0.07023102       3.56456446      10.84933647      -0.01473886       0.00489936       0.09384083
Cu       1.78143299       5.42858218       0.00539906       0.00840694       0.01285355      -0.03044982
Cu      -0.02945366       5.42257233       1.81326131      -0.04912510      -0.05119077      -0.01029787
Cu       1.78845313       3.60986329       1.80289376      -0.07281465      -0.00226890       0.05534661
Cu       3.54081306       3.56509298      10.85493605       0.06719962      -0.00124397       0.00129782
Cu       5.35052519       5.37254054      10.85416632      -0.02519730      -0.00865340       0.02375071
Cu       3.57796005       5.41642763       1.80941973       0.06197387       0.00809522      -0.04349645
Cu       5.39837084       3.60251932       1.81119521       0.00278553       0.05569863      -0.03181929
Cu       7.16465021       3.56257987      10.85394181      -0.02257260       0.00448825       0.02339890
Cu       8.97045271       5.36786070      10.84846892      -0.02381479       0.03179533       0.09695115
Cu       7.20512676       5.42384770       1.80790970      -0.03686167      -0.02656023      -0.00733178
Cu       9.00786776       3.61246006       1.80807059       0.10768479       0.00430520      -0.00196087
Cu      -0.08996232       7.18121205      10.85578188      -0.00947427       0.02391763       0.04027729
Cu       1.75901130       9.05656845       0.00369274       0.02645812      -0.04464270      -0.04452842
Cu      -0.05068516       9.03362839       1.81107948      -0.05423412       0.01388559      -0.03585970
Cu       1.76849136       7.22904697       1.80549206      -0.03245670      -0.00459433       0.01052449
Cu       3.58366608       7.24481025       0.00002877      -0.00850323      -0.04249709      -0.02822695
Cu       5.32435502       8.99459086      10.85537139       0.01012278       0.02115660       0.01235619
Cu       3.56177711       9.03364689       1.80892912       0.02885158       0.06619832       0.00882675
Cu       5.37952654       7.22719960       1.80525506       0.02985028       0.01252605       0.00522326
Cu       7.20069087       7.23986435       0.00154977      -0.00536343      -0.01995093      -0.00818298
Cu       8.94735443       8.99340888      10.85502898       0.03841272       0.01055313      -0.00900317
Cu       7.18767195       9.04169981       1.80235506      -0.04261507      -0.02327495       0.03738683
Cu       8.99873345       7.23147023       1.80905093       0.04032047      -0.02723726      -0.00615710
Cu      -0.01750809      -0.01749994       3.61206879      -0.02334757       0.00606306       0.05841931
Cu       1.77963349       1.79546724       3.61839923       0.03569487      -0.01969483       0.00211742
Cu      -0.03290218       1.78914459       5.42645972      -0.02449252      -0.07715429       0.02442744
Cu       1.72519430      10.82706652       5.42707713       0.01843222       0.04394059      -0.00087976
Cu       3.60519876      -0.01413117       3.62190231      -0.04524712      -0.03118495      -0.01315078
Cu       5.40247867       1.78829039       3.61955534      -0.00894381       0.02286766       0.01199830
Cu       3.58744303       1.78088494       5.42834181      -0.04357344       0.00930165       0.01210410
Cu       5.40193505      -0.02452813       5.43204324       0.00545805      -0.01238364      -0.01570326
Cu       7.16936676      10.83483157       3.62548800      -0.00853769       0.02281839      -0.01122937
Cu       9.01981873       1.79234137       3.61693197      -0.00312201      -0.03423714       0.00921490
Cu       7.20827317       1.78482501       5.42309214      -0.03066794      -0.02904943       0.02518615
Cu       8.97137761      10.82011762       5.44223893      -0.02536569       0.07096231      -0.08309131
Cu      10.81675936       3.59271708       3.63022926       0.04078404       0.06421896      -0.10415879
Cu       1.77101878       5.41052801       3.62131942      -0.06311517      -0.02779885      -0.01008432
Cu      -0.04870936       5.39662206       5.42451847      -0.00299107       0.02016172       0.03111448
Cu       1.76870669       3.59134381       5.43302456      -0.00757663       0.00967333      -0.01027133
Cu       3.58146986       3.60430419       3.61828632       0.01575332      -0.03838573       0.00291192
Cu       5.38035663       5.41982900       3.61868411       0.02460586      -0.07599646      -0.00496490
Cu       3.56494645       5.40038783       5.43093837      -0.00317996       0.01251862      -0.00813456
Cu       5.37348022       3.59349330       5.43395876       0.05297622      -0.02403608      -0.06436093
Cu       7.19908507       3.60277340       3.61268316      -0.01609942       0.02398979       0.04252982
Cu       9.01118228       5.41301972       3.62147217      -0.06008383      -0.02415297      -0.01594783
Cu       7.18082909       5.39914853       5.43719227       0.02078294       0.00198451      -0.08089027
Cu       9.00006070       3.59214379       5.42373246       0.00196157       0.02999878       0.03153543
Cu      -0.05381389       7.22036339       3.62381512      -0.00053462      -0.00595016      -0.01867046
Cu       1.73976096       9.02650492       3.61014523       0.06202325       0.02153756       0.05837255
Cu      -0.06755945       9.02680958       5.42881233      -0.03634458      -0.05652459      -0.02277644
Cu       1.74737218       7.20856436       5.42334314       0.00061603       0.01593143       0.02904078
Cu       3.56418559       7.21388095       3.60887404       0.01833852       0.06918700       0.06856378
Cu       5.36920424       9.03858580       3.61580962      -0.03550777      -0.06183100       0.01584273
Cu       3.54374427       9.02318668       5.43139282       0.01109659      -0.01211175      -0.05201432
Cu       5.36401915       7.21202036       5.42676088      -0.01176923      -0.00434238      -0.01567858
Cu       7.18249445       7.21804872       3.61648631       0.00549924       0.02615677       0.01355812
Cu       8.98140658       9.03195417       3.61686043       0.01156153      -0.03260847       0.04377159
Cu       7.15699554       9.01875881       5.43597514       0.05172511       0.00841077      -0.06366790
Cu       8.98237641       7.20471875       5.42681669       0.02325680       0.04465137      -0.00646202
Cu      10.76472033      10.81887613       7.23858870       0.02318890       0.03080525       0.02321962
Cu       1.76013799       1.77479372       7.24233670       0.01149189      -0.00906554      -0.02000613
Cu      -0.05223873       1.76747828       9.05614149       0.01336972      -0.05190366      -0.06065485
Cu       1.71873010      10.80430623       9.04011270      -0.07614391       0.05555064       0.04783882
Cu       3.58484539      -0.03145122       7.23812524       0.00057982      -0.02479541      -0.03723799
Cu       5.38670165       1.77065337       7.23414903      -0.00818148       0.02444150       0.01155560
Cu       3.56705989       1.76241244       9.04482899      -0.00938886       0.01048860       0.00384698
Cu       5.33238526      10.80742738       9.04018554      -0.02119042       0.01929791       0.04299990
Cu       7.14324692      10.81998509       7.24015617       0.03061393       0.02423533      -0.02138920
Cu       9.00786024       1.77765458       7.23742152      -0.02911304      -0.02085116       0.00910911
Cu       7.18172401       1.76474758       9.05050196       0.02137505      -0.00446805      -0.02171604
Cu       8.94820319      10.81075276       9.04382248       0.00971635       0.00352417       0.01998973
Cu      10.79923620       3.58539214       7.23608551       0.02780681       0.01618462       0.02517785
Cu       1.74719451       5.39261573       7.23949131      -0.02833153       0.00787299       0.00206748
Cu      10.78236782       5.38757603       9.05693510       0.02778212      -0.04512242      -0.08474752
Cu       1.74774374       3.57445041       9.05381613      -0.02171048       0.00228184      -0.04202308
Cu       3.55939570       3.58529206       7.24795951       0.01999912      -0.02344864      -0.03616326
Cu       5.36831384       5.38645847       7.22863348      -0.01948454       0.05745310       0.09851880
Cu       3.54648408       5.38315644       9.05112795       0.01992202       0.03141397      -0.00565873
Cu       5.36188882       3.57214169       9.04694840       0.01948737       0.01434252       0.00827623
Cu       7.18159412       3.57844242       7.23297935       0.03792169       0.01792726       0.04400286
Cu       8.99009851       5.39824616       7.24019319      -0.01922504      -0.05983114      -0.01407266
Cu       7.17029552       5.38060538       9.05218049      -0.05297662      -0.00148288      -0.04973016
Cu       8.98469013       3.56862388       9.05028548      -0.01258152       0.01449347      -0.04204482
Cu      -0.07188578       7.20385636       7.23227932      -0.00025628      -0.02461548       0.00501702
Cu       1.72525917       9.01289640       7.23966046       0.02931504      -0.03404211      -0.01882415
Cu      -0.08791399       8.99674632       9.04531493      -0.03640752       0.03453707       0.02414183
Cu       1.72091107       7.18774747       9.04995370       0.06618168       0.04634057      -0.01398521
Cu       3.54737721       7.20334472       7.23575688      -0.01580399      -0.01430389       0.02825916
Cu       5.35088179       9.00376192       7.23174366      -0.03513109       0.03884391       0.03811550
Cu       3.52910271       9.00720787       9.03987060      -0.00333823      -0.04928696       0.03524565
Cu       5.34793688       7.19311474       9.04938005       0.00063686      -0.02579157      -0.02571160
Cu       7.17051190       7.20289215       7.23520646      -0.03148996      -0.03180460       0.04263782
Cu       8.96159500       9.01065988       7.23558166       0.02440053      -0.03187171       0.03708598
Cu       7.14613870       9.00242545       9.04981387       0.01921618      -0.01899423      -0.01785829
Cu       8.96455414       7.18528669       9.05226951      -0.00153032       0.06574690      -0.03211079
108
Lattice="10.8568 0.0 0.0 -0.05421198 10.85666465 0.0 -0.05421198 -0.05448336 10.85652794" Properties=species:S:1:pos:R:3:forces:R:3 energy=-405.15150766 stress="-0.0008507938215446965 -0.002521279725067375 -0.002487606315220051 -0.002521279725067375 -0.0008508408076253962 -0.0025519678273412992 -0.002487606315220051 -0.0025519678273412992 -0.000894219358465376" free_energy=-405.16238875 pbc="T T T"
Cu       0.00020919       0.00464890       0.00080773      -0.01550762      -0.06142839      -0.03720998
Cu       1.80078222       1.80534751       0.00475538      -0.03241995      -0.03020565      -0.06538573
Cu      -0.01666774       1.79733782       1.80985638      -0.02385094       0.07129063      -0.01293286
Cu       1.73886604      10.83673935       1.80711022       0.06613301       0.09071475       0.03921577
Cu       3.56071069      -0.03927465      10.85013855       0.04535749      -0.12232778       0.03428375
Cu       5.41801691       1.79747494       0.00076777      -0.00567719       0.06905087      -0.01517894
Cu       3.58118293       1.80074622       1.79976426       0.10575765      -0.03097948       0.08894390
Cu       5.42020233      -0.00090074       1.81548321      -0.03234376      -0.04409106      -0.05429490
Cu       7.18058336      10.85453689       0.00263108       0.01989413       0.03393602      -0.03288001
Cu       9.05217721       1.80151830       0.00238833      -0.09240704       0.00835239       0.02354665
Cu       7.21963095       1.80117061       1.80858964       0.01172743      -0.04144148       0.00394272
Cu       8.97849332      10.83887252       1.81527748       0.05023416       0.05927802      -0.05409971
Cu      -0.06818167       3.56472848      10.84215933      -0.02789024       0.00520062       0.18474221
Cu       1.78050301       5.42883402       0.01079345       0.02331006       0.02616708      -0.06371237
Cu      -0.02277344       5.42588510       1.81709616      -0.09553405      -0.09798185      -0.01840648
Cu       1.79453097       3.60992229       1.79637105      -0.14355953      -0.00214636       0.11487527
Cu       3.53498923       3.56578450      10.85334437       0.13081914      -0.01053899       0.00107505
Cu       5.35396454       5.37123079      10.85180828      -0.04969952      -0.01548014       0.04768421
Cu       3.57314108       5.41360485       1.80940790       0.11241220       0.01357019      -0.07341545
Cu       5.39544798       3.59524301       1.81296080       0.00897348       0.09935699      -0.04800223
Cu       7.16370927       3.56075914      10.85135936      -0.03313387      -0.00219578       0.04090095
Cu       8.97489011       5.36187736      10.84042467      -0.04416405       0.05763019       0.17923339
Cu       7.20851896       5.42843965       1.80639337      -0.06191318      -0.05174740      -0.00842445
Cu       8.99552807       3.61511664       1.80671591       0.20897015       0.01135221      -0.00662092
Cu      -0.08957290       7.17913096      10.85504201      -0.02020663       0.05592567       0.07629638
Cu       1.75373303       9.06591329       0.00737864       0.05922568      -0.10570104      -0.09718272
Cu      -0.04716669       9.02912263       1.81272848      -0.10738300       0.01334263      -0.05863245
Cu       1.77268412       7.22939371       1.80156080      -0.06845624      -0.01599151       0.01420262
Cu       3.58454242       7.25183406       0.00005331      -0.03104378      -0.07424198      -0.06183666
Cu       5.31970014       8.99645130      10.85421680       0.02479622       0.03392352       0.02094170
Cu       3.55884087       9.02916741       1.80843472       0.06218242       0.13305303       0.01717907
Cu       5.37583443       7.22570167       1.80108593       0.05978248       0.03830542       0.02387238
Cu       7.19965206       7.24194562       0.00309834       0.00289474      -0.03185798      -0.02327076
Cu       8.94677361       8.99408594      10.85352872       0.06724793       0.01095572      -0.01581093
Cu       7.19167917       9.04525987       1.79529083      -0.08788244      -0.04419591       0.07866907
Cu       8.99531997       7.23423687       1.80867606       0.07449675      -0.04699392      -0.01303454
Cu      -0.01694907      -0.01683784       3.60530756      -0.04219745       0.01355632       0.11892583
Cu       1.77690802       1.79964481       3.61795987       0.06023563      -0.04149388       0.00373785
Cu      -0.02966689       1.79607127       5.42465928      -0.04683151      -0.15682055       0.04961646
Cu       1.72223918      10.82471668       5.42589019       0.04448074       0.08098781      -0.00246311
Cu       3.60953153      -0.01010590       3.62496352      -0.10197712      -0.05991841      -0.04374498
Cu       5.40366189       1.78529773       3.62027361      -0.01024279       0.05273702       0.01774509
Cu       3.59209115       1.77956524       5.42842150      -0.09514670       0.02635619       0.02206449
Cu       5.40257698      -0.02181653       5.43582022       0.00960254      -0.02954747      -0.03575471
Cu       7.17314454      10.83116307       3.63213534      -0.00778075       0.04830344      -0.02633108
Cu       9.01941331       1.79339089       3.61502632      -0.00261021      -0.06988854       0.02194377
Cu       7.21481272       1.78743961       5.41792421      -0.05448776      -0.04743769       0.04901903
Cu       8.97673957      10.81082296       5.45620129      -0.04901528       0.13499631      -0.16822497
Cu      10.81286622       3.58472052       3.64160376       0.07444918       0.12784365      -0.22157738
Cu       1.77773428       5.41088057       3.62379829      -0.11359853      -0.05387171      -0.03662633
Cu      -0.04320710       5.39215659       5.42077774      -0.02505376       0.04600198       0.06258772
Cu       1.77311865       3.59104612       5.43778352       0.00148687       0.00474797      -0.01792214
Cu       3.58015359       3.60787913       3.61773405       0.03156699      -0.06551807       0.00598250
Cu       5.37749353       5.42947528       3.61852831       0.04706080      -0.14454469      -0.00736610
Cu       3.56517463       5.39968697       5.43361146      -0.00968155       0.02961086      -0.01864635
Cu       5.36374518       3.59533993       5.43964378       0.09822416      -0.04523462      -0.11911637
Cu       7.19643860       3.60482697       3.60653380      -0.03516499       0.05543573       0.09815780
Cu       9.02020239       5.41586442       3.62410292      -0.11557733      -0.04755766      -0.03936173