108
Lattice="10.8567 0.0 0.0 0.0 10.8567 0.0 0.0 0.0 10.8567" Properties=species:S:1:pos:R:3:forces:R:3 energy=-405.25882653 stress="-0.00031054424558483735 5.891360463921207e-08 1.3263206892501925e-08 5.891360463921207e-08 -0.0003105188738502407 -1.4542716263307993e-09 1.3263206892501925e-08 -1.4542716263307993e-09 -0.00031057419858713245" free_energy=-405.27218186 pbc="T T T"
Cu       0.00000000       0.00000000       0.00000000       0.00000500       0.00000525      -0.00000926
Cu       1.80945362       1.80945362       0.00000000      -0.00955915      -0.00955173      -0.00001781
Cu       0.00000000       1.80945362       1.80945362       0.00001536      -0.00953806      -0.00953788
Cu       1.80945362       0.00000000       1.80945362      -0.00954684      -0.00001941      -0.00952468
Cu       3.61889638       0.00000000       0.00000000       0.00180681      -0.00002789      -0.00001125
Cu       5.42835000       1.80945362       0.00000000       0.00002495      -0.00181743      -0.00002583
Cu       3.61889638       1.80945362       1.80945362      -0.00534314       0.00531014       0.00534807
Cu       5.42835000       0.00000000       1.80945362       0.00001283      -0.00003363      -0.00181478
Cu       7.23780362       0.00000000       0.00000000      -0.00180913      -0.00000210      -0.00000140
Cu       9.04724638       1.80945362       0.00000000       0.00953504      -0.00952167      -0.00000076
Cu       7.23780362       1.80945362       1.80945362       0.00532097       0.00533945       0.00531137
Cu       9.04724638       0.00000000       1.80945362       0.00953395      -0.00000753      -0.00953437
Cu       0.00000000       3.61889638       0.00000000      -0.00001131       0.00182868       0.00001979
Cu       1.80945362       5.42835000       0.00000000      -0.00182609       0.00001740       0.00002107
Cu       0.00000000       5.42835000       1.80945362      -0.00000696       0.00000315      -0.00180275
Cu       1.80945362       3.61889638       1.80945362       0.00529351      -0.00528923       0.00534556
Cu       3.61889638       3.61889638       0.00000000       0.00955621       0.00958056      -0.00002039
Cu       5.42835000       5.42835000       0.00000000       0.00001836       0.00000886       0.00000046
Cu       3.61889638       5.42835000       1.80945362       0.00954741       0.00001165      -0.00952551
Cu       5.42835000       3.61889638       1.80945362       0.00003341       0.00958297      -0.00952109
Cu       7.23780362       3.61889638       0.00000000      -0.00954033       0.00957095       0.00000042
Cu       9.04724638       5.42835000       0.00000000       0.00181444      -0.00000524       0.00001225
Cu       7.23780362       5.42835000       1.80945362      -0.00954388      -0.00001135      -0.00953506
Cu       9.04724638       3.61889638       1.80945362      -0.00532476      -0.00528975       0.00530642
Cu       0.00000000       7.23780362       0.00000000      -0.00000874      -0.00183371       0.00000506
Cu       1.80945362       9.04724638       0.00000000      -0.00951191       0.00953420       0.00001099
Cu       0.00000000       9.04724638       1.80945362       0.00001058       0.00953669      -0.00951422
Cu       1.80945362       7.23780362       1.80945362       0.00532731       0.00530739       0.00532517
Cu       3.61889638       7.23780362       0.00000000       0.00955054      -0.00954528       0.00001795
Cu       5.42835000       9.04724638       0.00000000      -0.00002444       0.00180982       0.00001831
Cu       3.61889638       9.04724638       1.80945362      -0.00533197      -0.00532422       0.00531946
Cu       5.42835000       7.23780362       1.80945362      -0.00000515      -0.00954981      -0.00954802
Cu       7.23780362       7.23780362       0.00000000      -0.00954001      -0.00956707       0.00000850
Cu       9.04724638       9.04724638       0.00000000       0.00953598       0.00952733      -0.00000246
Cu       7.23780362       9.04724638       1.80945362       0.00532335      -0.00532925       0.00532887
Cu       9.04724638       7.23780362       1.80945362      -0.00532218       0.00529604       0.00533920
Cu       0.00000000       0.00000000       3.61889638       0.00001853       0.00001012       0.00182653
Cu       1.80945362       1.80945362       3.61889638       0.00529987       0.00530603      -0.00529759
Cu       0.00000000       1.80945362       5.42835000       0.00000782      -0.00180816       0.00000234
Cu       1.80945362       0.00000000       5.42835000      -0.00180925       0.00001792      -0.00000475
Cu       3.61889638       0.00000000       3.61889638       0.00952982      -0.00002134       0.00955350
Cu       5.42835000       1.80945362       3.61889638       0.00002644      -0.00953540       0.00956774
Cu       3.61889638       1.80945362       5.42835000       0.00952410      -0.00955444      -0.00000289
Cu       5.42835000       0.00000000       5.42835000      -0.00000596       0.00000579       0.00001375
Cu       7.23780362       0.00000000       3.61889638      -0.00954291      -0.00001127       0.00955556
Cu       9.04724638       1.80945362       3.61889638      -0.00532581       0.00534274      -0.00529601
Cu       7.23780362       1.80945362       5.42835000      -0.00953251      -0.00951775       0.00001618
Cu       9.04724638       0.00000000       5.42835000       0.00181201      -0.00000096      -0.00000380
Cu       0.00000000       3.61889638       3.61889638      -0.00000063       0.00955289       0.00952706
Cu       1.80945362       5.42835000       3.61889638      -0.00954181       0.00001768       0.00951569
Cu       0.00000000       5.42835000       5.42835000      -0.00001515       0.00000331       0.00000863
Cu       1.80945362       3.61889638       5.42835000      -0.00953231       0.00952951       0.00000386
Cu       3.61889638       3.61889638       3.61889638      -0.00533541      -0.00529613      -0.00531479
Cu       5.42835000       5.42835000       3.61889638       0.00001462       0.00000739       0.00180769
Cu       3.61889638       5.42835000       5.42835000       0.00181016       0.00000401      -0.00000800
Cu       5.42835000       3.61889638       5.42835000       0.00001648       0.00181536       0.00000505
Cu       7.23780362       3.61889638       3.61889638       0.00533932      -0.00529950      -0.00531752
Cu       9.04724638       5.42835000       3.61889638       0.00952834      -0.00000606       0.00952718
Cu       7.23780362       5.42835000       5.42835000      -0.00179612       0.00000206       0.00001087
Cu       9.04724638       3.61889638       5.42835000       0.00952058       0.00954651       0.00002528
Cu       0.00000000       7.23780362       3.61889638       0.00000195      -0.00956205       0.00953462
Cu       1.80945362       9.04724638       3.61889638       0.00532954      -0.00532375      -0.00532953
Cu       0.00000000       9.04724638       5.42835000      -0.00000265       0.00180595      -0.00002019
Cu       1.80945362       7.23780362       5.42835000      -0.00954079      -0.00954823      -0.00000970
Cu       3.61889638       7.23780362       3.61889638      -0.00532201       0.00531851      -0.00532691
Cu       5.42835000       9.04724638       3.61889638      -0.00000565       0.00952599       0.00953099
Cu       3.61889638       9.04724638       5.42835000       0.00953856       0.00954482       0.00000473
Cu       5.42835000       7.23780362       5.42835000       0.00001811      -0.00182126       0.00000175
Cu       7.23780362       7.23780362       3.61889638       0.00531929       0.00531236      -0.00532194
Cu       9.04724638       9.04724638       3.61889638      -0.00532256      -0.00532992      -0.00531514
Cu       7.23780362       9.04724638       5.42835000      -0.00953610       0.00951325       0.00001166
Cu       9.04724638       7.23780362       5.42835000       0.00952390      -0.00954754      -0.00000904
Cu       0.00000000       0.00000000       7.23780362      -0.00000287      -0.00000009      -0.00181290
Cu       1.80945362       1.80945362       7.23780362       0.00532378       0.00530918       0.00531748
Cu       0.00000000       1.80945362       9.04724638      -0.00000630      -0.00952615       0.00953551
Cu       1.80945362       0.00000000       9.04724638      -0.00952079      -0.00000512       0.00952741
Cu       3.61889638       0.00000000       7.23780362       0.00953860      -0.00000668      -0.00954480
Cu       5.42835000       1.80945362       7.23780362       0.00000638      -0.00953149      -0.00954149
Cu       3.61889638       1.80945362       9.04724638      -0.00531868       0.00530621      -0.00533833
Cu       5.42835000       0.00000000       9.04724638      -0.00002069      -0.00001365       0.00180059
Cu       7.23780362       0.00000000       7.23780362      -0.00953813      -0.00000097      -0.00955458
Cu       9.04724638       1.80945362       7.23780362      -0.00533012       0.00534627       0.00529796
Cu       7.23780362       1.80945362       9.04724638       0.00532338       0.00533898      -0.00532213
Cu       9.04724638       0.00000000       9.04724638       0.00954126       0.00000646       0.00953792
Cu       0.00000000       3.61889638       7.23780362      -0.00001011       0.00954749      -0.00954807
Cu       1.80945362       5.42835000       7.23780362      -0.00954095      -0.00000883      -0.00953234
Cu       0.00000000       5.42835000       9.04724638      -0.00001698      -0.00001196       0.00179342
Cu       1.80945362       3.61889638       9.04724638       0.00529993      -0.00531035      -0.00534929
Cu       3.61889638       3.61889638       7.23780362      -0.00531653      -0.00531160       0.00533629
Cu       5.42835000       5.42835000       7.23780362       0.00003313      -0.00001275      -0.00180703
Cu       3.61889638       5.42835000       9.04724638       0.00955166      -0.00000049       0.00953200
Cu       5.42835000       3.61889638       9.04724638       0.00003000       0.00956523       0.00951678
Cu       7.23780362       3.61889638       7.23780362       0.00532789      -0.00530313       0.00532114
Cu       9.04724638       5.42835000       7.23780362       0.00950966      -0.00002108      -0.00954096
Cu       7.23780362       5.42835000       9.04724638      -0.00953468      -0.00001210       0.00952369
Cu       9.04724638       3.61889638       9.04724638      -0.00532424      -0.00530384      -0.00533103
Cu       0.00000000       7.23780362       7.23780362      -0.00000959      -0.00954498      -0.00953876
Cu       1.80945362       9.04724638       7.23780362       0.00533356      -0.00530014       0.00532076
Cu       0.00000000       9.04724638       9.04724638      -0.00001118       0.00953863       0.00953344
Cu       1.80945362       7.23780362       9.04724638       0.00533277       0.00531478      -0.00531354
Cu       3.61889638       7.23780362       7.23780362      -0.00531339       0.00532019       0.00531089
Cu       5.42835000       9.04724638       7.23780362      -0.00000601       0.00954607      -0.00954571
Cu       3.61889638       9.04724638       9.04724638      -0.00531004      -0.00530548      -0.00532749
Cu       5.42835000       7.23780362       9.04724638      -0.00000371      -0.00955138       0.00954323
Cu       7.23780362       7.23780362       7.23780362       0.00532624       0.00530565       0.00531199
Cu       9.04724638       9.04724638       7.23780362      -0.00532417      -0.00532313       0.00532123
Cu       7.23780362       9.04724638       9.04724638       0.00531942      -0.00532713      -0.00534270
Cu       9.04724638       7.23780362       9.04724638      -0.00532887       0.00529404      -0.00532998
108
Lattice="10.8567 0.0 0.0 0.0 10.8567 0.0 0.0 0.0 10.8567" Properties=species:S:1:pos:R:3:forces:R:3 energy=-405.23911648 stress="-0.0005503946996553254 1.0818900847114397e-05 1.1540550373758145e-06 1.0818900847114397e-05 -0.0005436074516960022 -7.007698061649309e-06 1.1540550373758145e-06 -7.007698061649309e-06 -0.0005587339051003085" free_energy=-405.25245564 pbc="T T T"
Cu       0.00311218       0.00863043      10.85597358      -0.03750270      -0.03935274       0.01342130
Cu       1.81125127       1.81936144       0.00511828      -0.03279899      -0.06815088      -0.03843145
Cu       0.00148921       1.81785171       1.81510670      -0.01206043      -0.05317467      -0.04690301
Cu       1.80143660       0.00261082       1.80534913       0.05615107       0.00666341       0.00494362
Cu       3.61524321       0.00231693      10.84888014       0.02012941       0.00116928       0.06097806
Cu       5.43174402       1.81213121      10.85617497      -0.03792144      -0.01953957       0.02733261
Cu       3.62074625       1.81165036       1.81382757      -0.01575687      -0.03149257      -0.04287635
Cu       5.42316864      10.84990414       1.81585299       0.02711237       0.04880839      -0.06725766
Cu       7.23649039       0.00280635       0.00039128      -0.00502563      -0.04259174       0.03102138
Cu       9.04776240       1.80466907      10.85095431       0.02520111       0.01584362       0.04953223
Cu       7.23669624       1.80848227       1.80711367       0.01251759       0.00769982       0.02117964
Cu       9.04505322       0.00134406       1.81421928       0.04207877      -0.00781166      -0.05709718
Cu      10.85566764       3.62424211       0.00290634      -0.00547860      -0.04161974      -0.04422244
Cu       1.80466809       5.43202651      10.85498649       0.03075373      -0.00514164      -0.01122265
Cu      10.85656440       5.42566438       1.80951203       0.00657402       0.05386666      -0.00068812
Cu       1.80980201       3.61673394       1.80158729       0.01176138       0.01394895       0.07420542
Cu       3.61468898       3.61919679       0.00063772       0.04323341       0.01243624      -0.00756367
Cu       5.42336775       5.43008805       0.01076995       0.04326222      -0.01720763      -0.07200668
Cu       3.61707582       5.42273318       1.80905550       0.00274518       0.02646674       0.00338450
Cu       5.42623403       3.62271403       1.81377893       0.01594883      -0.02262518      -0.04696535
Cu       7.24399682       3.61964343       0.00404770      -0.03828274       0.02205909      -0.02180403
Cu       9.04936669       5.43281840      10.85542325      -0.02623006      -0.00277213       0.01144347
Cu       7.23816015       5.42569499       1.80861385       0.01759559       0.01887898       0.00036371
Cu       9.05252762       3.61529304       1.80871124      -0.04546078       0.02323876       0.00697116
Cu       0.00178549       7.23717078      10.85347762      -0.00788855      -0.00612794       0.03471815
Cu       1.79979040       9.04798431      10.85263156       0.04603060       0.00571435       0.01535543
Cu       0.00371451       9.04443830       1.80772621      -0.03098121       0.01699751      -0.02160355
Cu       1.81975793       7.23913606       1.80510540      -0.07390121      -0.03257247       0.02046580
Cu       3.61792232       7.24167230       0.00373709      -0.00086649      -0.04183729      -0.03585716
Cu       5.42340293       9.04599732       0.00375327       0.04528228       0.02326993      -0.02405246
Cu       3.61350462       9.04791602       1.80554043       0.00519890       0.03765412       0.01824582
Cu       5.43218198       7.24268631       1.80471847      -0.01771676      -0.02399662       0.05986530
Cu       7.23601813       7.24299616      10.85496944      -0.00219222      -0.04461565      -0.00693169
Cu       9.04518111       9.04386550      10.84918933       0.04168909       0.06033803       0.06307711
Cu       7.24365473       9.04533441       1.81412493      -0.03360850       0.03734113      -0.02715155
Cu       9.04692806       7.24237472       1.81046698       0.02586131      -0.04181408      -0.02109225
Cu       0.00239097      10.85643900       3.61284562      -0.00268369      -0.00930763       0.05050258
Cu       1.80998419       1.80470566       3.62556587       0.00278335       0.04703686      -0.01899392
Cu       0.00196528       1.80773631       5.43165359      -0.00571915       0.02635927      -0.03379165
Cu       1.80749377       0.00029487       5.43509114       0.01003082      -0.04769582      -0.05968506
Cu       3.61928299       0.00801474       3.62255498      -0.03554915      -0.05996534      -0.00562661
Cu       5.42555364       1.81242271       3.61387559       0.02140682      -0.02869607       0.02347250
Cu       3.62582817       1.80666508       5.43145567      -0.02747070       0.02659996      -0.00617729
Cu       5.42176020       0.00305128       5.42776721       0.03662155      -0.04088198       0.00808736
Cu       7.23895758       0.00293055       3.62060088      -0.01050446      -0.00591125       0.02175138
Cu       9.05284290       1.81050672       3.61845440      -0.04046204       0.01896083       0.01969384
Cu       7.22463531       1.81233271       5.42600539       0.08212443      -0.03359846      -0.00819970
Cu       9.05427056       0.00749590       5.42505152      -0.05274748      -0.05255300       0.01338300
Cu       0.00026013       3.62355184       3.61499796       0.01579322      -0.02184258       0.05538481
Cu       1.80856120       5.42186301       3.62131840       0.00155855       0.01359629      -0.01772914
Cu      10.85309145       5.42560727       5.42877613       0.03145541       0.00532202       0.00926535
Cu       1.80794443       3.61869618       5.43723762      -0.00711620       0.00008628      -0.05523317
Cu       3.61928559       3.61236358       3.62182845      -0.03313009       0.02821598       0.00522415
Cu       5.42731981       5.42150908       3.61583675       0.01930219       0.06262575       0.02358571
Cu       3.61754722       5.42866104       5.42729603       0.02356953      -0.00751260      -0.00132332
Cu       5.42852881       3.61834942       5.43089742      -0.00895172       0.04013005      -0.00175597
Cu       7.23702552       3.61366106       3.61706638       0.03685098       0.04005169       0.02076879
Cu       9.05078295       5.43067040       3.62409316      -0.01541865      -0.03340505      -0.03409979
Cu       7.23999016       5.43358814       5.43091196      -0.05906767      -0.05839587      -0.03862535
Cu       9.05069262       3.62014827       5.43585274      -0.01609591      -0.02520355      -0.06462291
Cu       0.00502861       7.23543154       3.61844170      -0.00518769       0.00011736       0.01151637
Cu       1.81131424       9.04794566       3.61503107      -0.01294343       0.00971504       0.04141056
Cu      10.84828193       9.04524799       5.43047998       0.07492278       0.00631798      -0.02940877
Cu       1.81510095       7.23191646       5.42482070      -0.04207768       0.03089818       0.01854075
Cu       3.61684327       7.23705310       3.61160882       0.03111997      -0.00763019       0.01612631
Cu       5.42339989       9.05853876       3.61948188       0.02224215      -0.08285166       0.01404148
Cu       3.61440399       9.03765948       5.43249194       0.01408032       0.06286325      -0.03721844
Cu       5.42204247       7.23743731       5.42449837       0.03573729      -0.00270611      -0.01628897
Cu       7.24990482       7.23628075       3.61696595      -0.11154943       0.00093192       0.00486499
Cu       9.05188686       9.04711371       3.61731195      -0.00928779       0.00462547       0.02141834
Cu       7.23772361       9.04046681       5.42582397      -0.01354797       0.06757202       0.01731031
Cu       9.04139115       7.23308649       5.42967777       0.06051520       0.03537677      -0.01112190
Cu       0.00705121       0.00064337       7.24056730      -0.04983952      -0.01942509      -0.00156667
Cu       1.81553120       1.80471608       7.22711031      -0.02218801       0.03649897       0.09061310
Cu       0.00084530       1.80312405       9.04579690       0.01816398       0.03269227       0.00767406
Cu       1.80977487      10.85305095       9.04812219      -0.00123352       0.03403196       0.00977256
Cu       3.61879856       0.00120216       7.23682120       0.01872697      -0.02563577       0.02762229
Cu       5.43066497       1.80690088       7.23725764      -0.01993358       0.00135807       0.03187038
Cu       3.61566445       1.80995498       9.04877359       0.02147476      -0.00862004      -0.02241026
Cu       5.43337361      10.85329197       9.04955017      -0.03968188       0.01943108      -0.01260111
Cu       7.24082287       0.00294857       7.23459047      -0.02629501      -0.04222325      -0.02605387
Cu       9.04698821       1.80346604       7.23317334      -0.00956442       0.02886889       0.03323443
Cu       7.23919827       1.80979029       9.05010973      -0.00358174       0.01530515      -0.03316739
Cu       9.04344882       0.00024612       9.04824932       0.03783602      -0.01311770      -0.00789503
Cu      10.85466415       3.61720795       7.24461229       0.01842882       0.01125465      -0.02199378
Cu       1.81133617       5.42708845       7.23496166      -0.02767623       0.00167009       0.01935134
Cu      10.85114550       5.42737192       9.04874178       0.03155080       0.02291694      -0.04247376
Cu       1.81023780       3.61802730       9.04981627      -0.01830079       0.00092633      -0.03384287
Cu       3.61498037       3.62024674       7.23926461       0.04668564      -0.00844323       0.00374496
Cu       5.42405683       5.43786633       7.24152008       0.02966621      -0.08666835      -0.03676133
Cu       3.62003438       5.42944740       9.04934889      -0.01076122      -0.00874757       0.02601986
Cu       5.42694362       3.61483250       9.04984244       0.01632526       0.04302028      -0.00307915
Cu       7.24026527       3.61294800       7.23316119      -0.02902083       0.03454398       0.03781448
Cu       9.04119811       5.42859330       7.22879473       0.05267041       0.00280011       0.07913753
Cu       7.23917623       5.42548731       9.04284377      -0.01486822       0.00729870       0.04387480
Cu       9.04988944       3.61813663       9.04958307      -0.02490900      -0.01177655      -0.03132151
Cu       0.00435245       7.23778473       7.23055286      -0.02906741      -0.02985992       0.01426610
Cu       1.81107811       9.04768553       7.24343000      -0.00827248      -0.00565525      -0.05297708
Cu       0.00179852       9.04257811       9.04832413      -0.01944647       0.05112536      -0.00671275
Cu       1.80845274       7.24084241       9.03573817      -0.00507751      -0.04523509       0.07455741
Cu       3.61899518       7.23987117       7.24621821      -0.00879052      -0.01966876      -0.05206429
Cu       5.42071188       9.04928853       7.23782392       0.05909981       0.00027921      -0.01076984
Cu       3.61916422       9.04186124       9.05369711       0.00587790       0.03220183      -0.02220386
Cu       5.42751903       7.23091721       9.04418143       0.02545470       0.04369667       0.05576627
Cu       7.23700142       7.23674835       7.23481987      -0.00293172       0.04838977       0.03962134
Cu       9.05274758       9.04778053       7.23869593      -0.04334799       0.01129231      -0.01475937
Cu       7.23955980       9.05075375       9.04823206      -0.03464888      -0.03182672      -0.03558481
Cu       9.05075570       7.24597622       9.04607147      -0.02883379      -0.06258477      -0.02614536
108
Lattice="10.8567 0.0 0.0 0.0 10.8567 0.0 0.0 0.0 10.8567" Properties=species:S:1:pos:R:3:forces:R:3 energy=-405.17973859 stress="-0.0007723909923127497 1.4309140267290063e-05 -5.950792113817867e-06 1.4309140267290063e-05 -0.0008235865340121682 -1.9384542001675426e-05 -5.950792113817867e-06 -1.9384542001675426e-05 -0.0007866556056539358" free_energy=-405.19302723 pbc="T T T"
Cu       0.00621872       0.01725488      10.85524922      -0.07802036      -0.08396129       0.02839503
Cu       1.81304393       1.82925906       0.01023081      -0.04598272      -0.12964792      -0.07367882
Cu       0.00297658       1.82624188       1.82075262      -0.01696610      -0.09387796      -0.08373435
Cu       1.79342804       0.00522272       1.80124541       0.11954417       0.00927185       0.00958768
Cu       3.61159308       0.00463418      10.84106961       0.04214883       0.00169011       0.11978512
Cu       5.43513218       1.81480586      10.85565417      -0.07286622      -0.03927699       0.05031717
Cu       3.62259363       1.81384233       1.81819511      -0.02864584      -0.05623580      -0.08248341
Cu       5.41799130      10.84311588       1.82224227       0.05487440       0.09208975      -0.13508574
Cu       7.23517630       0.00560629       0.00078733      -0.01096140      -0.07998881       0.06254235
Cu       9.04828211       1.79988702      10.84521622       0.03836130       0.04764672       0.09637585
Cu       7.23559081       1.80751212       1.80477688       0.01792156       0.00829994       0.03226374
Cu       9.04286635       0.00268692       1.81897636       0.06982868      -0.02036510      -0.10371632
Cu      10.85463430       3.62958165       0.00580605      -0.01104286      -0.07922794      -0.08239485
Cu       1.79988724       5.43570237      10.85327124       0.06144495      -0.00589853      -0.01868313
Cu      10.85642978       5.42298690       1.80957033       0.01284888       0.10024432       0.00612073
Cu       1.81015214       3.61457368       1.79373236       0.01697175       0.04159430       0.14846828
Cu       3.61048808       3.61949915       0.00127436       0.09132858       0.02092233      -0.01751917
Cu       5.41839202       5.43182360       0.02152905       0.08251892      -0.03281743      -0.13694723
Cu       3.61525580       5.41712037       1.80865793      -0.00490309       0.05367851       0.01584303
Cu       5.42412056       3.62652842       1.81809718       0.03131739      -0.06656789      -0.09313096
Cu       7.25018417       3.62039385       0.00809215      -0.07084935       0.03247976      -0.04553252
Cu       9.05148299       5.43728648      10.85414824      -0.05377525      -0.00262464       0.02256442
Cu       7.23851929       5.42304281       1.80777409       0.04351603       0.04121188       0.01203751
Cu       9.05780202       3.61169318       1.80797005      -0.08502866       0.04599790       0.01129730
Cu       0.00356979       7.23653708      10.85026046      -0.01086373      -0.01176855       0.06052802
Cu       1.79013423       9.04872322      10.84856540       0.10023368       0.00454790       0.03467076
Cu       0.00742435       9.04163282       1.80599554      -0.06358659       0.02462221      -0.03089768
Cu       1.83005106       7.24046373       1.80076033      -0.15321897      -0.06546971       0.03807914
Cu       3.61694815       7.24553457       0.00746887      -0.00652223      -0.07705730      -0.07030863
Cu       5.41846269       9.04475184       0.00750296       0.08570707       0.04393761      -0.04863068
Cu       3.60811372       9.04859142       1.80163017       0.01126873       0.08089729       0.02910182
Cu       5.43601125       7.24756553       1.79999244      -0.03129942      -0.04305397       0.13326195
Cu       7.23423242       7.24818208      10.85323791       0.00437823      -0.08880942      -0.01336522
Cu       9.04312225       9.04049373      10.84168833       0.07030619       0.10521347       0.12650210
Cu       7.24950063       9.04342830       1.81879223      -0.06913201       0.07240739      -0.05131247
Cu       9.04661354       7.24693942       1.81147709       0.05507621      -0.07769975      -0.04584202
Cu       0.00478151      10.85617671       3.60680267      -0.00040811      -0.01586539       0.09616173
Cu       1.81051519       1.79996486       3.63223253      -0.00179799       0.09038870      -0.03891983
Cu       0.00392969       1.80602290       5.43495207      -0.00873931       0.05596205      -0.05596296
Cu       1.80553544       0.00058257       5.44182338       0.02152019      -0.10027428      -0.11303959
Cu       3.61966417       0.01602036       3.62621282      -0.07928165      -0.11597762      -0.02066913
Cu       5.42276043       1.81538746       3.60885838       0.05139228      -0.04737503       0.03860322
Cu       3.63275583       1.80388066       5.43456047      -0.06114312       0.05897047      -0.01625081
Cu       5.41517605       0.00609636       5.42718562       0.08814466      -0.09164739       0.01460866
Cu       7.24010991       0.00586034       3.62230875      -0.01396014      -0.01492057       0.03056303
Cu       9.05843323       1.81156275       3.61801547      -0.06863246       0.03680601       0.04299129
Cu       7.21147949       1.81520680       5.42365947       0.17551755      -0.05592450      -0.01493416
Cu       9.06128659       0.01498377       5.42175499      -0.09396430      -0.08895649       0.01455672
Cu       0.00052275       3.62820394       3.61110800       0.03068991      -0.06274110       0.10857315
Cu       1.80766910       5.41537820       3.62373782       0.01932123       0.02446818      -0.04002316
Cu      10.84948768       5.42286530       5.42920355       0.06985796       0.01887361       0.01531265
Cu       1.80643404       3.61849609       5.44611688      -0.00584776      -0.00720141      -0.10844831
Cu       3.61966981       3.60583512       3.62476128      -0.06427588       0.06032537       0.01993880
Cu       5.42629255       5.41467772       3.61278058       0.03460634       0.11947367       0.05451935
Cu       3.61620164       5.42897100       5.42624185       0.04820640      -0.01982541       0.00124267
Cu       5.42870632       3.61780865       5.43344462      -0.02164599       0.07757981       0.00319319
Cu       7.23625307       3.60843183       3.61523941       0.06648276       0.07592714       0.04043198
Cu       9.05431702       5.43298570       3.62928472      -0.03636902      -0.07082333      -0.08025656