96
Lattice="13.92467348 0.0 0.0 0.0 13.92467348 0.0 0.0 0.0 6.96233674" Properties=species:S:1:pos:R:3:forces:R:3 energy=-301.9149132 stress="-0.01554640927637733 -0.0 -0.0 -0.0 -0.01554640927637733 -0.0 -0.0 -0.0 -0.015545758368115116" free_energy=-301.90933275 pbc="T T T"
Mg       3.48116837       0.00000000       3.48116837      -0.00000000       0.00000000      -0.00000000
Mg       1.74058418       5.22175256       5.22175256       0.00000000       0.00000000      -0.00000000
Mg       3.48116837       3.48116837       0.00000000      -0.00000000       0.00000000       0.00000000
Mg       1.74058418       1.74058418       1.74058418       0.00000000       0.00000000       0.00000000
Mg       0.00000000       0.00000000       0.00000000       0.00000000      -0.00000000       0.00000000
Mg       5.22175256       5.22175256       1.74058418       0.00000000       0.00000000       0.00000000
Mg       0.00000000       3.48116837       3.48116837      -0.00000000       0.00000000       0.00000000
Mg       5.22175256       1.74058418       5.22175256      -0.00000000       0.00000000      -0.00000000
Mg      10.44350511       0.00000000       3.48116837       0.00000000      -0.00000000       0.00000000
Mg       8.70292092       5.22175256       5.22175256       0.00000000       0.00000000       0.00000000
Mg      10.44350511       3.48116837       0.00000000       0.00000000       0.00000000      -0.00000000
Mg       8.70292092       1.74058418       1.74058418       0.00000000       0.00000000      -0.00000000
Mg       6.96233674       0.00000000       0.00000000      -0.00000000       0.00000000      -0.00000000
Mg      12.18408929       5.22175256       1.74058418       0.00000000       0.00000000      -0.00000000
Mg       6.96233674       3.48116837       3.48116837       0.00000000       0.00000000       0.00000000
Mg      12.18408929       1.74058418       5.22175256       0.00000000       0.00000000       0.00000000
Mg       3.48116837       6.96233674       3.48116837       0.00000000       0.00000000      -0.00000000
Mg       1.74058418      12.18408929       5.22175256      -0.00000000      -0.00000000       0.00000000
Mg       3.48116837      10.44350511       0.00000000       0.00000000      -0.00000000       0.00000000
Mg       1.74058418       8.70292092       1.74058418      -0.00000000       0.00000000       0.00000000
Mg       0.00000000       6.96233674       0.00000000      -0.00000000       0.00000000      -0.00000000
Mg       5.22175256      12.18408929       1.74058418      -0.00000000      -0.00000000       0.00000000
Mg       0.00000000      10.44350511       3.48116837      -0.00000000      -0.00000000       0.00000000
Mg       5.22175256       8.70292092       5.22175256       0.00000000      -0.00000000      -0.00000000
Mg      10.44350511       6.96233674       3.48116837      -0.00000000       0.00000000       0.00000000
Mg       8.70292092      12.18408929       5.22175256       0.00000000      -0.00000000      -0.00000000
Mg      10.44350511      10.44350511       0.00000000       0.00000000      -0.00000000      -0.00000000
Mg       8.70292092       8.70292092       1.74058418       0.00000000      -0.00000000      -0.00000000
Mg       6.96233674       6.96233674       0.00000000       0.00000000       0.00000000      -0.00000000
Mg      12.18408929      12.18408929       1.74058418       0.00000000       0.00000000      -0.00000000
Mg       6.96233674      10.44350511       3.48116837       0.00000000      -0.00000000       0.00000000
Mg      12.18408929       8.70292092       5.22175256       0.00000000       0.00000000       0.00000000
Cu       2.61087628       0.87029209       6.09204465      -0.00000000      -0.00000000       0.00000000
Cu       2.61087628       6.09204465       0.87029209       0.00000000      -0.00000000       0.00000000
Cu       0.87029209       6.09204465       2.61087628       0.00000000       0.00000000      -0.00000000
Cu       0.87029209       4.35146046       0.87029209      -0.00000000       0.00000000      -0.00000000
Cu       2.61087628       4.35146046       2.61087628      -0.00000000      -0.00000000      -0.00000000
Cu       2.61087628       2.61087628       4.35146046       0.00000000       0.00000000       0.00000000
Cu       0.87029209       2.61087628       6.09204465       0.00000000      -0.00000000      -0.00000000
Cu       0.87029209       0.87029209       4.35146046      -0.00000000       0.00000000       0.00000000
Cu       6.09204465       0.87029209       2.61087628      -0.00000000      -0.00000000      -0.00000000
Cu       6.09204465       6.09204465       4.35146046       0.00000000      -0.00000000       0.00000000
Cu       4.35146046       6.09204465       6.09204465       0.00000000       0.00000000      -0.00000000
Cu       4.35146046       4.35146046       4.35146046      -0.00000000       0.00000000      -0.00000000
Cu       6.09204465       4.35146046       6.09204465      -0.00000000      -0.00000000      -0.00000000
Cu       6.09204465       2.61087628       0.87029209       0.00000000      -0.00000000       0.00000000
Cu       4.35146046       2.61087628       2.61087628       0.00000000      -0.00000000      -0.00000000
Cu       4.35146046       0.87029209       0.87029209       0.00000000       0.00000000       0.00000000
Cu       9.57321302       0.87029209       6.09204465      -0.00000000      -0.00000000       0.00000000
Cu       9.57321302       6.09204465       0.87029209       0.00000000      -0.00000000       0.00000000
Cu       7.83262883       6.09204465       2.61087628       0.00000000       0.00000000      -0.00000000
Cu       7.83262883       4.35146046       0.87029209      -0.00000000       0.00000000      -0.00000000
Cu       9.57321302       4.35146046       2.61087628      -0.00000000      -0.00000000      -0.00000000
Cu       9.57321302       2.61087628       4.35146046       0.00000000      -0.00000000       0.00000000
Cu       7.83262883       2.61087628       6.09204465       0.00000000      -0.00000000      -0.00000000
Cu       7.83262883       0.87029209       4.35146046       0.00000000       0.00000000       0.00000000
Cu      13.05438139       0.87029209       2.61087628      -0.00000000      -0.00000000       0.00000000
Cu      13.05438139       6.09204465       4.35146046       0.00000000      -0.00000000       0.00000000
Cu      11.31379720       6.09204465       6.09204465       0.00000000       0.00000000      -0.00000000
Cu      11.31379720       4.35146046       4.35146046       0.00000000       0.00000000      -0.00000000
Cu      13.05438139       4.35146046       6.09204465      -0.00000000      -0.00000000      -0.00000000
Cu      13.05438139       2.61087628       0.87029209       0.00000000      -0.00000000       0.00000000
Cu      11.31379720       2.61087628       2.61087628       0.00000000       0.00000000      -0.00000000
Cu      11.31379720       0.87029209       0.87029209      -0.00000000       0.00000000       0.00000000
Cu       2.61087628       7.83262883       6.09204465      -0.00000000      -0.00000000       0.00000000
Cu       2.61087628      13.05438139       0.87029209       0.00000000      -0.00000000      -0.00000000
Cu       0.87029209      13.05438139       2.61087628       0.00000000       0.00000000      -0.00000000
Cu       0.87029209      11.31379720       0.87029209       0.00000000       0.00000000       0.00000000
Cu       2.61087628      11.31379720       2.61087628      -0.00000000      -0.00000000       0.00000000
Cu       2.61087628       9.57321302       4.35146046       0.00000000      -0.00000000       0.00000000
Cu       0.87029209       9.57321302       6.09204465       0.00000000       0.00000000      -0.00000000
Cu       0.87029209       7.83262883       4.35146046      -0.00000000       0.00000000      -0.00000000
Cu       6.09204465       7.83262883       2.61087628      -0.00000000      -0.00000000       0.00000000
Cu       6.09204465      13.05438139       4.35146046       0.00000000      -0.00000000      -0.00000000
Cu       4.35146046      13.05438139       6.09204465      -0.00000000       0.00000000       0.00000000
Cu       4.35146046      11.31379720       4.35146046      -0.00000000       0.00000000       0.00000000
Cu       6.09204465      11.31379720       6.09204465      -0.00000000      -0.00000000       0.00000000
Cu       6.09204465       9.57321302       0.87029209       0.00000000      -0.00000000       0.00000000
Cu       4.35146046       9.57321302       2.61087628       0.00000000       0.00000000      -0.00000000
Cu       4.35146046       7.83262883       0.87029209      -0.00000000       0.00000000      -0.00000000
Cu       9.57321302       7.83262883       6.09204465      -0.00000000      -0.00000000       0.00000000
Cu       9.57321302      13.05438139       0.87029209       0.00000000      -0.00000000      -0.00000000
Cu       7.83262883      13.05438139       2.61087628      -0.00000000       0.00000000       0.00000000
Cu       7.83262883      11.31379720       0.87029209       0.00000000       0.00000000       0.00000000
Cu       9.57321302      11.31379720       2.61087628      -0.00000000      -0.00000000       0.00000000
Cu       9.57321302       9.57321302       4.35146046       0.00000000      -0.00000000       0.00000000
Cu       7.83262883       9.57321302       6.09204465       0.00000000       0.00000000       0.00000000
Cu       7.83262883       7.83262883       4.35146046      -0.00000000       0.00000000      -0.00000000
Cu      13.05438139       7.83262883       2.61087628      -0.00000000      -0.00000000       0.00000000
Cu      13.05438139      13.05438139       4.35146046       0.00000000      -0.00000000      -0.00000000
Cu      11.31379720      13.05438139       6.09204465      -0.00000000       0.00000000      -0.00000000
Cu      11.31379720      11.31379720       4.35146046       0.00000000       0.00000000       0.00000000
Cu      13.05438139      11.31379720       6.09204465      -0.00000000      -0.00000000       0.00000000
Cu      13.05438139       9.57321302       0.87029209       0.00000000      -0.00000000       0.00000000
Cu      11.31379720       9.57321302       2.61087628       0.00000000       0.00000000       0.00000000
Cu      11.31379720       7.83262883       0.87029209      -0.00000000       0.00000000      -0.00000000
96
Lattice="14.07153227 0.0 0.0 0.0 14.07153227 0.0 0.0 0.0 7.03576306" Properties=species:S:1:pos:R:3:forces:R:3 energy=-302.13637968 stress="0.005474250670079432 -0.0 -0.0 -0.0 0.005474250670079432 -0.0 -0.0 -0.0 0.005474850647627177" free_energy=-302.13223258 pbc="T T T"
Mg       3.51788307       0.00000000       3.51788153       0.00000000       0.00000000      -0.00000000
Mg       1.75894153       5.27682460       5.27682229       0.00000000       0.00000000       0.00000000
Mg       3.51788307       3.51788307       0.00000000       0.00000000       0.00000000       0.00000000
Mg       1.75894153       1.75894153       1.75894076       0.00000000       0.00000000       0.00000000
Mg       0.00000000       0.00000000       0.00000000       0.00000000       0.00000000       0.00000000
Mg       5.27682460       5.27682460       1.75894076       0.00000000       0.00000000       0.00000000
Mg       0.00000000       3.51788307       3.51788153       0.00000000       0.00000000      -0.00000000
Mg       5.27682460       1.75894153       5.27682229       0.00000000       0.00000000      -0.00000000
Mg      10.55364920       0.00000000       3.51788153       0.00000000       0.00000000       0.00000000
Mg       8.79470767       5.27682460       5.27682229       0.00000000       0.00000000       0.00000000
Mg      10.55364920       3.51788307       0.00000000       0.00000000       0.00000000       0.00000000
Mg       8.79470767       1.75894153       1.75894076       0.00000000       0.00000000       0.00000000
Mg       7.03576614       0.00000000       0.00000000       0.00000000       0.00000000       0.00000000
Mg      12.31259074       5.27682460       1.75894076       0.00000000       0.00000000       0.00000000
Mg       7.03576614       3.51788307       3.51788153       0.00000000       0.00000000       0.00000000
Mg      12.31259074       1.75894153       5.27682229       0.00000000       0.00000000       0.00000000
Mg       3.51788307       7.03576614       3.51788153       0.00000000       0.00000000      -0.00000000
Mg       1.75894153      12.31259074       5.27682229       0.00000000       0.00000000      -0.00000000
Mg       3.51788307      10.55364920       0.00000000       0.00000000       0.00000000       0.00000000
Mg       1.75894153       8.79470767       1.75894076       0.00000000       0.00000000       0.00000000
Mg       0.00000000       7.03576614       0.00000000       0.00000000       0.00000000       0.00000000
Mg       5.27682460      12.31259074       1.75894076       0.00000000       0.00000000       0.00000000
Mg       0.00000000      10.55364920       3.51788153       0.00000000       0.00000000       0.00000000
Mg       5.27682460       8.79470767       5.27682229       0.00000000       0.00000000       0.00000000
Mg      10.55364920       7.03576614       3.51788153       0.00000000       0.00000000      -0.00000000
Mg       8.79470767      12.31259074       5.27682229       0.00000000       0.00000000       0.00000000
Mg      10.55364920      10.55364920       0.00000000       0.00000000       0.00000000       0.00000000
Mg       8.79470767       8.79470767       1.75894076       0.00000000       0.00000000       0.00000000
Mg       7.03576614       7.03576614       0.00000000       0.00000000       0.00000000       0.00000000
Mg      12.31259074      12.31259074       1.75894076       0.00000000       0.00000000       0.00000000
Mg       7.03576614      10.55364920       3.51788153       0.00000000       0.00000000       0.00000000
Mg      12.31259074       8.79470767       5.27682229       0.00000000       0.00000000      -0.00000000
Cu       2.63841230       0.87947077       6.15629268       0.00000000       0.00000000      -0.00000000
Cu       2.63841230       6.15629537       0.87947038      -0.00000000      -0.00000000       0.00000000
Cu       0.87947077       6.15629537       2.63841115       0.00000000      -0.00000000      -0.00000000
Cu       0.87947077       4.39735383       0.87947038       0.00000000      -0.00000000       0.00000000
Cu       2.63841230       4.39735383       2.63841115       0.00000000       0.00000000       0.00000000
Cu       2.63841230       2.63841230       4.39735191      -0.00000000       0.00000000       0.00000000
Cu       0.87947077       2.63841230       6.15629268       0.00000000      -0.00000000      -0.00000000
Cu       0.87947077       0.87947077       4.39735191       0.00000000      -0.00000000      -0.00000000
Cu       6.15629537       0.87947077       2.63841115       0.00000000       0.00000000      -0.00000000
Cu       6.15629537       6.15629537       4.39735191      -0.00000000      -0.00000000       0.00000000
Cu       4.39735383       6.15629537       6.15629268       0.00000000      -0.00000000      -0.00000000
Cu       4.39735383       4.39735383       4.39735191       0.00000000      -0.00000000       0.00000000
Cu       6.15629537       4.39735383       6.15629268       0.00000000       0.00000000       0.00000000
Cu       6.15629537       2.63841230       0.87947038      -0.00000000       0.00000000       0.00000000
Cu       4.39735383       2.63841230       2.63841115      -0.00000000      -0.00000000      -0.00000000
Cu       4.39735383       0.87947077       0.87947038       0.00000000      -0.00000000      -0.00000000
Cu       9.67417844       0.87947077       6.15629268       0.00000000       0.00000000      -0.00000000
Cu       9.67417844       6.15629537       0.87947038      -0.00000000      -0.00000000       0.00000000
Cu       7.91523690       6.15629537       2.63841115       0.00000000      -0.00000000      -0.00000000
Cu       7.91523690       4.39735383       0.87947038       0.00000000      -0.00000000       0.00000000
Cu       9.67417844       4.39735383       2.63841115       0.00000000       0.00000000       0.00000000
Cu       9.67417844       2.63841230       4.39735191      -0.00000000       0.00000000       0.00000000
Cu       7.91523690       2.63841230       6.15629268       0.00000000      -0.00000000      -0.00000000
Cu       7.91523690       0.87947077       4.39735191      -0.00000000      -0.00000000      -0.00000000
Cu      13.19206150       0.87947077       2.63841115      -0.00000000       0.00000000      -0.00000000
Cu      13.19206150       6.15629537       4.39735191      -0.00000000      -0.00000000       0.00000000
Cu      11.43311997       6.15629537       6.15629268       0.00000000      -0.00000000      -0.00000000
Cu      11.43311997       4.39735383       4.39735191       0.00000000      -0.00000000      -0.00000000
Cu      13.19206150       4.39735383       6.15629268      -0.00000000       0.00000000       0.00000000
Cu      13.19206150       2.63841230       0.87947038      -0.00000000       0.00000000       0.00000000
Cu      11.43311997       2.63841230       2.63841115      -0.00000000      -0.00000000      -0.00000000
Cu      11.43311997       0.87947077       0.87947038       0.00000000      -0.00000000      -0.00000000
Cu       2.63841230       7.91523690       6.15629268       0.00000000       0.00000000       0.00000000
Cu       2.63841230      13.19206150       0.87947038      -0.00000000       0.00000000      -0.00000000
Cu       0.87947077      13.19206150       2.63841115      -0.00000000      -0.00000000      -0.00000000
Cu       0.87947077      11.43311997       0.87947038       0.00000000      -0.00000000      -0.00000000
Cu       2.63841230      11.43311997       2.63841115       0.00000000       0.00000000      -0.00000000
Cu       2.63841230       9.67417844       4.39735191      -0.00000000      -0.00000000      -0.00000000
Cu       0.87947077       9.67417844       6.15629268      -0.00000000      -0.00000000      -0.00000000
Cu       0.87947077       7.91523690       4.39735191       0.00000000      -0.00000000       0.00000000
Cu       6.15629537       7.91523690       2.63841115       0.00000000       0.00000000       0.00000000
Cu       6.15629537      13.19206150       4.39735191      -0.00000000       0.00000000      -0.00000000
Cu       4.39735383      13.19206150       6.15629268      -0.00000000      -0.00000000      -0.00000000
Cu       4.39735383      11.43311997       4.39735191       0.00000000      -0.00000000      -0.00000000
Cu       6.15629537      11.43311997       6.15629268       0.00000000       0.00000000       0.00000000
Cu       6.15629537       9.67417844       0.87947038      -0.00000000      -0.00000000      -0.00000000
Cu       4.39735383       9.67417844       2.63841115      -0.00000000      -0.00000000      -0.00000000
Cu       4.39735383       7.91523690       0.87947038       0.00000000      -0.00000000       0.00000000
Cu       9.67417844       7.91523690       6.15629268       0.00000000       0.00000000       0.00000000
Cu       9.67417844      13.19206150       0.87947038      -0.00000000       0.00000000      -0.00000000
Cu       7.91523690      13.19206150       2.63841115      -0.00000000      -0.00000000      -0.00000000
Cu       7.91523690      11.43311997       0.87947038       0.00000000      -0.00000000      -0.00000000
Cu       9.67417844      11.43311997       2.63841115       0.00000000       0.00000000       0.00000000
Cu       9.67417844       9.67417844       4.39735191      -0.00000000      -0.00000000      -0.00000000
Cu       7.91523690       9.67417844       6.15629268      -0.00000000      -0.00000000      -0.00000000
Cu       7.91523690       7.91523690       4.39735191       0.00000000      -0.00000000       0.00000000
Cu      13.19206150       7.91523690       2.63841115       0.00000000       0.00000000       0.00000000
Cu      13.19206150      13.19206150       4.39735191      -0.00000000       0.00000000       0.00000000
Cu      11.43311997      13.19206150       6.15629268      -0.00000000      -0.00000000      -0.00000000
Cu      11.43311997      11.43311997       4.39735191      -0.00000000      -0.00000000      -0.00000000
Cu      13.19206150      11.43311997       6.15629268      -0.00000000       0.00000000      -0.00000000
Cu      13.19206150       9.67417844       0.87947038      -0.00000000      -0.00000000      -0.00000000
Cu      11.43311997       9.67417844       2.63841115      -0.00000000      -0.00000000      -0.00000000
Cu      11.43311997       7.91523690       0.87947038       0.00000000      -0.00000000       0.00000000
96
Lattice="14.03450701 0.0 0.0 0.0 14.03450701 0.0 0.0 0.0 7.01725121" Properties=species:S:1:pos:R:3:forces:R:3 energy=-302.169176 stress="0.00012024282310636 -0.0 -0.0 -0.0 0.00012024282310636 -0.0 -0.0 -0.0 0.00012089560382130875" free_energy=-302.16469796 pbc="T T T"
Mg       3.50862675       0.00000000       3.50862561       0.00000000       0.00000000       0.00000000
Mg       1.75431338       5.26294013       5.26293841       0.00000000       0.00000000       0.00000000
Mg       3.50862675       3.50862675       0.00000000       0.00000000       0.00000000      -0.00000000
Mg       1.75431338       1.75431338       1.75431280       0.00000000       0.00000000      -0.00000000
Mg       0.00000000       0.00000000       0.00000000       0.00000000       0.00000000      -0.00000000
Mg       5.26294013       5.26294013       1.75431280       0.00000000       0.00000000      -0.00000000
Mg       0.00000000       3.50862675       3.50862561       0.00000000       0.00000000       0.00000000
Mg       5.26294013       1.75431338       5.26293841       0.00000000       0.00000000       0.00000000
Mg      10.52588026       0.00000000       3.50862561       0.00000000       0.00000000       0.00000000
Mg       8.77156688       5.26294013       5.26293841       0.00000000       0.00000000       0.00000000
Mg      10.52588026       3.50862675       0.00000000       0.00000000       0.00000000      -0.00000000
Mg       8.77156688       1.75431338       1.75431280       0.00000000       0.00000000      -0.00000000
Mg       7.01725351       0.00000000       0.00000000       0.00000000       0.00000000       0.00000000
Mg      12.28019363       5.26294013       1.75431280       0.00000000       0.00000000      -0.00000000
Mg       7.01725351       3.50862675       3.50862561       0.00000000       0.00000000       0.00000000
Mg      12.28019363       1.75431338       5.26293841       0.00000000       0.00000000      -0.00000000
Mg       3.50862675       7.01725351       3.50862561       0.00000000       0.00000000      -0.00000000
Mg       1.75431338      12.28019363       5.26293841       0.00000000       0.00000000       0.00000000
Mg       3.50862675      10.52588026       0.00000000       0.00000000       0.00000000       0.00000000
Mg       1.75431338       8.77156688       1.75431280       0.00000000       0.00000000      -0.00000000
Mg       0.00000000       7.01725351       0.00000000       0.00000000       0.00000000      -0.00000000
Mg       5.26294013      12.28019363       1.75431280       0.00000000       0.00000000      -0.00000000
Mg       0.00000000      10.52588026       3.50862561       0.00000000       0.00000000       0.00000000
Mg       5.26294013       8.77156688       5.26293841       0.00000000       0.00000000      -0.00000000
Mg      10.52588026       7.01725351       3.50862561       0.00000000       0.00000000       0.00000000
Mg       8.77156688      12.28019363       5.26293841       0.00000000       0.00000000      -0.00000000
Mg      10.52588026      10.52588026       0.00000000       0.00000000       0.00000000      -0.00000000
Mg       8.77156688       8.77156688       1.75431280       0.00000000       0.00000000      -0.00000000
Mg       7.01725351       7.01725351       0.00000000       0.00000000       0.00000000      -0.00000000
Mg      12.28019363      12.28019363       1.75431280       0.00000000       0.00000000      -0.00000000
Mg       7.01725351      10.52588026       3.50862561       0.00000000       0.00000000       0.00000000
Mg      12.28019363       8.77156688       5.26293841       0.00000000       0.00000000       0.00000000
Cu       2.63147006       0.87715669       6.14009481       0.00000000       0.00000000      -0.00000000
Cu       2.63147006       6.14009682       0.87715640      -0.00000000       0.00000000      -0.00000000
Cu       0.87715669       6.14009682       2.63146920       0.00000000       0.00000000      -0.00000000
Cu       0.87715669       4.38578344       0.87715640      -0.00000000      -0.00000000       0.00000000
Cu       2.63147006       4.38578344       2.63146920       0.00000000       0.00000000      -0.00000000
Cu       2.63147006       2.63147006       4.38578201      -0.00000000      -0.00000000       0.00000000
Cu       0.87715669       2.63147006       6.14009481       0.00000000      -0.00000000       0.00000000
Cu       0.87715669       0.87715669       4.38578201      -0.00000000      -0.00000000       0.00000000
Cu       6.14009682       0.87715669       2.63146920       0.00000000       0.00000000      -0.00000000
Cu       6.14009682       6.14009682       4.38578201      -0.00000000      -0.00000000       0.00000000
Cu       4.38578344       6.14009682       6.14009481       0.00000000      -0.00000000      -0.00000000
Cu       4.38578344       4.38578344       4.38578201      -0.00000000      -0.00000000      -0.00000000
Cu       6.14009682       4.38578344       6.14009481       0.00000000       0.00000000       0.00000000
Cu       6.14009682       2.63147006       0.87715640      -0.00000000       0.00000000       0.00000000
Cu       4.38578344       2.63147006       2.63146920       0.00000000       0.00000000       0.00000000
Cu       4.38578344       0.87715669       0.87715640      -0.00000000      -0.00000000       0.00000000
Cu       9.64872357       0.87715669       6.14009481       0.00000000       0.00000000      -0.00000000
Cu       9.64872357       6.14009682       0.87715640      -0.00000000      -0.00000000       0.00000000
Cu       7.89441019       6.14009682       2.63146920       0.00000000      -0.00000000      -0.00000000
Cu       7.89441019       4.38578344       0.87715640      -0.00000000      -0.00000000      -0.00000000
Cu       9.64872357       4.38578344       2.63146920       0.00000000       0.00000000      -0.00000000
Cu       9.64872357       2.63147006       4.38578201      -0.00000000       0.00000000       0.00000000
Cu       7.89441019       2.63147006       6.14009481       0.00000000      -0.00000000       0.00000000
Cu       7.89441019       0.87715669       4.38578201      -0.00000000      -0.00000000       0.00000000
Cu      13.15735032       0.87715669       2.63146920       0.00000000       0.00000000      -0.00000000
Cu      13.15735032       6.14009682       4.38578201      -0.00000000      -0.00000000       0.00000000
Cu      11.40303695       6.14009682       6.14009481       0.00000000      -0.00000000       0.00000000
Cu      11.40303695       4.38578344       4.38578201      -0.00000000      -0.00000000       0.00000000
Cu      13.15735032       4.38578344       6.14009481       0.00000000       0.00000000      -0.00000000
Cu      13.15735032       2.63147006       0.87715640      -0.00000000      -0.00000000       0.00000000
Cu      11.40303695       2.63147006       2.63146920       0.00000000      -0.00000000       0.00000000
Cu      11.40303695       0.87715669       0.87715640      -0.00000000      -0.00000000       0.00000000
Cu       2.63147006       7.89441019       6.14009481       0.00000000       0.00000000      -0.00000000
Cu       2.63147006      13.15735032       0.87715640      -0.00000000      -0.00000000      -0.00000000
Cu       0.87715669      13.15735032       2.63146920       0.00000000      -0.00000000       0.00000000
Cu       0.87715669      11.40303695       0.87715640      -0.00000000      -0.00000000      -0.00000000
Cu       2.63147006      11.40303695       2.63146920       0.00000000       0.00000000      -0.00000000
Cu       2.63147006       9.64872357       4.38578201      -0.00000000      -0.00000000       0.00000000
Cu       0.87715669       9.64872357       6.14009481       0.00000000       0.00000000       0.00000000
Cu       0.87715669       7.89441019       4.38578201      -0.00000000      -0.00000000      -0.00000000
Cu       6.14009682       7.89441019       2.63146920       0.00000000       0.00000000      -0.00000000
Cu       6.14009682      13.15735032       4.38578201      -0.00000000      -0.00000000      -0.00000000
Cu       4.38578344      13.15735032       6.14009481       0.00000000      -0.00000000       0.00000000
Cu       4.38578344      11.40303695       4.38578201      -0.00000000      -0.00000000      -0.00000000
Cu       6.14009682      11.40303695       6.14009481       0.00000000       0.00000000      -0.00000000
Cu       6.14009682       9.64872357       0.87715640      -0.00000000      -0.00000000      -0.00000000
Cu       4.38578344       9.64872357       2.63146920       0.00000000       0.00000000       0.00000000
Cu       4.38578344       7.89441019       0.87715640      -0.00000000      -0.00000000      -0.00000000
Cu       9.64872357       7.89441019       6.14009481       0.00000000       0.00000000      -0.00000000
Cu       9.64872357      13.15735032       0.87715640      -0.00000000      -0.00000000      -0.00000000
Cu       7.89441019      13.15735032       2.63146920       0.00000000       0.00000000       0.00000000
Cu       7.89441019      11.40303695       0.87715640      -0.00000000      -0.00000000      -0.00000000
Cu       9.64872357      11.40303695       2.63146920       0.00000000       0.00000000      -0.00000000