120
Lattice="15.9435 0.0 0.0 -6.3774 11.04598082 0.0 0.0 0.0 15.552384" Properties=species:S:1:pos:R:3:forces:R:3 energy=-180.58716312 stress="0.0001901151696046519 -2.16187775744131e-05 -6.578550618680955e-09 -2.16187775744131e-05 0.002968808487309566 1.1353305099981647e-08 -6.578550618680955e-09 1.1353305099981647e-08 0.0033858116699339623" free_energy=-180.58896353 pbc="T T T"
Mg       0.00000000       0.00000000       0.00000000      -0.00026676      -0.00139209       0.00000451
Mg       0.00000003       1.84099684       2.59206405       0.00012593       0.00253194       0.00000848
Mg       3.18870000       0.00000000       0.00000000      -0.00096461      -0.00119997       0.00000408
Mg       3.18870003       1.84099684       2.59206405       0.00176345       0.00096711       0.00000913
Mg       6.37740000       0.00000000       0.00000000       0.00050464      -0.00422232       0.00000395
Mg       6.37740003       1.84099684       2.59206405      -0.00532855       0.00024291       0.00000770
Mg       9.56610000       0.00000000       0.00000000      -0.00115525       0.00175290       0.00000322
Mg       9.56610003       1.84099684       2.59206405      -0.00042704       0.00181165       0.00000765
Mg      12.75480000       0.00000000       0.00000000       0.00037757      -0.00132181       0.00000388
Mg      12.75480003       1.84099684       2.59206405       0.00198779       0.00274033       0.00000842
Mg      -1.59435000       2.76149521       0.00000000      -0.00026717      -0.00139124       0.00000405
Mg      -1.59434997       4.60249205       2.59206405       0.00012798       0.00253296       0.00000927
Mg       1.59435000       2.76149521       0.00000000      -0.00096530      -0.00120007       0.00000446
Mg       1.59435003       4.60249205       2.59206405       0.00176412       0.00096798       0.00000776
Mg       4.78305000       2.76149521       0.00000000       0.00050536      -0.00422274       0.00000469
Mg       4.78305003       4.60249205       2.59206405      -0.00532978       0.00024273       0.00000641
Mg       7.97175000       2.76149521       0.00000000      -0.00115450       0.00175251       0.00000460
Mg       7.97175003       4.60249205       2.59206405      -0.00042683       0.00181096       0.00000652
Mg      11.16045000       2.76149521       0.00000000       0.00037824      -0.00132258       0.00000419
Mg      11.16045003       4.60249205       2.59206405       0.00198844       0.00273772       0.00000805
Mg      -3.18870000       5.52299041       0.00000000      -0.00026612      -0.00139200       0.00000491
Mg      -3.18869997       7.36398725       2.59206405       0.00012708       0.00253273       0.00000838
Mg       0.00000000       5.52299041       0.00000000      -0.00096465      -0.00119888       0.00000326
Mg       0.00000003       7.36398725       2.59206405       0.00176429       0.00096792       0.00000781
Mg       3.18870000       5.52299041       0.00000000       0.00050437      -0.00422281       0.00000454
Mg       3.18870003       7.36398725       2.59206405      -0.00532904       0.00024317       0.00000650
Mg       6.37740000       5.52299041       0.00000000      -0.00115573       0.00175318       0.00000395
Mg       6.37740003       7.36398725       2.59206405      -0.00042800       0.00181079       0.00000560
Mg       9.56610000       5.52299041       0.00000000       0.00037768      -0.00132394       0.00000453
Mg       9.56610003       7.36398725       2.59206405       0.00198900       0.00273944       0.00000916
Mg      -4.78305000       8.28448562       0.00000000      -0.00026604      -0.00139040       0.00000348
Mg      -4.78304997      10.12548246       2.59206405       0.00012684       0.00253259       0.00000905
Mg      -1.59435000       8.28448562       0.00000000      -0.00096482      -0.00120073       0.00000353
Mg      -1.59434997      10.12548246       2.59206405       0.00176399       0.00096590       0.00000776
Mg       1.59435000       8.28448562       0.00000000       0.00050295      -0.00422313       0.00000346
Mg       1.59435003      10.12548246       2.59206405      -0.00532852       0.00024221       0.00000730
Mg       4.78305000       8.28448562       0.00000000      -0.00115547       0.00175295       0.00000340
Mg       4.78305003      10.12548246       2.59206405      -0.00042830       0.00181173       0.00000744
Mg       7.97175000       8.28448562       0.00000000       0.00037732      -0.00132346       0.00000429
Mg       7.97175003      10.12548246       2.59206405       0.00198764       0.00273979       0.00000870
Mg       0.00000000       0.00000000       5.18412795      -0.00026450      -0.00139111       0.00000207
Mg       0.00000003       1.84099684       7.77619200       0.00012572       0.00253236      -0.00000394
Mg       3.18870000       0.00000000       5.18412795      -0.00096489      -0.00120062       0.00000323
Mg       3.18870003       1.84099684       7.77619200       0.00176209       0.00096613      -0.00000191
Mg       6.37740000       0.00000000       5.18412795       0.00050355      -0.00422227       0.00000264
Mg       6.37740003       1.84099684       7.77619200      -0.00532946       0.00024284      -0.00000169
Mg       9.56610000       0.00000000       5.18412795      -0.00115561       0.00175429       0.00000143
Mg       9.56610003       1.84099684       7.77619200      -0.00042585       0.00181087      -0.00000257
Mg      12.75480000       0.00000000       5.18412795       0.00037938      -0.00132062       0.00000340
Mg      12.75480003       1.84099684       7.77619200       0.00198923       0.00273993      -0.00000194
Mg      -1.59435000       2.76149521       5.18412795      -0.00026622      -0.00139200       0.00000387
Mg      -1.59434997       4.60249205       7.77619200       0.00012644       0.00253269      -0.00000470
Mg       1.59435000       2.76149521       5.18412795      -0.00096593      -0.00120071       0.00000270
Mg       1.59435003       4.60249205       7.77619200       0.00176409       0.00096756      -0.00000301
Mg       4.78305000       2.76149521       5.18412795       0.00050408      -0.00422230       0.00000226
Mg       4.78305003       4.60249205       7.77619200      -0.00532946       0.00024276      -0.00000136
Mg       7.97175000       2.76149521       5.18412795      -0.00115367       0.00175314       0.00000179
Mg       7.97175003       4.60249205       7.77619200      -0.00042694       0.00181174      -0.00000282
Mg      11.16045000       2.76149521       5.18412795       0.00037922      -0.00132206       0.00000322
Mg      11.16045003       4.60249205       7.77619200       0.00198963       0.00273993      -0.00000206
Mg      -3.18870000       5.52299041       5.18412795      -0.00026533      -0.00139162       0.00000389
Mg      -3.18869997       7.36398725       7.77619200       0.00012674       0.00253153      -0.00000460
Mg       0.00000000       5.52299041       5.18412795      -0.00096522      -0.00120009       0.00000290
Mg       0.00000003       7.36398725       7.77619200       0.00176409       0.00096699      -0.00000301
Mg       3.18870000       5.52299041       5.18412795       0.00050335      -0.00422179       0.00000193
Mg       3.18870003       7.36398725       7.77619200      -0.00532837       0.00024342      -0.00000296
Mg       6.37740000       5.52299041       5.18412795      -0.00115470       0.00175457       0.00000257
Mg       6.37740003       7.36398725       7.77619200      -0.00042642       0.00181115      -0.00000321
Mg       9.56610000       5.52299041       5.18412795       0.00037953      -0.00132287       0.00000369
Mg       9.56610003       7.36398725       7.77619200       0.00198843       0.00273886      -0.00000300
Mg      -4.78305000       8.28448562       5.18412795      -0.00026547      -0.00139317       0.00000488
Mg      -4.78304997      10.12548246       7.77619200       0.00012687       0.00253152      -0.00000359
Mg      -1.59435000       8.28448562       5.18412795      -0.00096534      -0.00120102       0.00000367
Mg      -1.59434997      10.12548246       7.77619200       0.00176417       0.00096534      -0.00000166
Mg       1.59435000       8.28448562       5.18412795       0.00050364      -0.00422142       0.00000269
Mg       1.59435003      10.12548246       7.77619200      -0.00532733       0.00024286      -0.00000217
Mg       4.78305000       8.28448562       5.18412795      -0.00115505       0.00175411       0.00000312
Mg       4.78305003      10.12548246       7.77619200      -0.00042662       0.00181062      -0.00000408
Mg       7.97175000       8.28448562       5.18412795       0.00037953      -0.00132205       0.00000258
Mg       7.97175003      10.12548246       7.77619200       0.00198838       0.00274007      -0.00000328
Mg       0.00000000       0.00000000      10.36825605      -0.00026547      -0.00139014      -0.00000960
Mg       0.00000003       1.84099684      12.96031995       0.00012723       0.00253312      -0.00000470
Mg       3.18870000       0.00000000      10.36825605      -0.00096623      -0.00120022      -0.00000802
Mg       3.18870003       1.84099684      12.96031995       0.00176486       0.00096808      -0.00000542
Mg       6.37740000       0.00000000      10.36825605       0.00050397      -0.00422287      -0.00000623
Mg       6.37740003       1.84099684      12.96031995      -0.00532960       0.00024216      -0.00000341
Mg       9.56610000       0.00000000      10.36825605      -0.00115476       0.00175327      -0.00000787
Mg       9.56610003       1.84099684      12.96031995      -0.00042826       0.00181097      -0.00000467
Mg      12.75480000       0.00000000      10.36825605       0.00037835      -0.00132070      -0.00000834
Mg      12.75480003       1.84099684      12.96031995       0.00198892       0.00274046      -0.00000407
Mg      -1.59435000       2.76149521      10.36825605      -0.00026599      -0.00139123      -0.00000852
Mg      -1.59434997       4.60249205      12.96031995       0.00012810       0.00253402      -0.00000553
Mg       1.59435000       2.76149521      10.36825605      -0.00096548      -0.00119918      -0.00000882
Mg       1.59435003       4.60249205      12.96031995       0.00176322       0.00096941      -0.00000532
Mg       4.78305000       2.76149521      10.36825605       0.00050372      -0.00422259      -0.00000507
Mg       4.78305003       4.60249205      12.96031995      -0.00532853       0.00024391      -0.00000469
Mg       7.97175000       2.76149521      10.36825605      -0.00115533       0.00175289      -0.00000686
Mg       7.97175003       4.60249205      12.96031995      -0.00042804       0.00181108      -0.00000526
Mg      11.16045000       2.76149521      10.36825605       0.00037841      -0.00132126      -0.00000823
Mg      11.16045003       4.60249205      12.96031995       0.00198937       0.00273944      -0.00000515
Mg      -3.18870000       5.52299041      10.36825605      -0.00026633      -0.00139281      -0.00000856
Mg      -3.18869997       7.36398725      12.96031995       0.00012783       0.00253347      -0.00000471
Mg       0.00000000       5.52299041      10.36825605      -0.00096486      -0.00119993      -0.00000702
Mg       0.00000003       7.36398725      12.96031995       0.00176406       0.00096798      -0.00000457
Mg       3.18870000       5.52299041      10.36825605       0.00050389      -0.00422316      -0.00000700
Mg       3.18870003       7.36398725      12.96031995      -0.00532964       0.00024291      -0.00000521
Mg       6.37740000       5.52299041      10.36825605      -0.00115534       0.00175392      -0.00000697
Mg       6.37740003       7.36398725      12.96031995      -0.00042697       0.00181119      -0.00000449
Mg       9.56610000       5.52299041      10.36825605       0.00037811      -0.00132241      -0.00000770
Mg       9.56610003       7.36398725      12.96031995       0.00198894       0.00273908      -0.00000398
Mg      -4.78305000       8.28448562      10.36825605      -0.00026581      -0.00139337      -0.00000846
Mg      -4.78304997      10.12548246      12.96031995       0.00012670       0.00253222      -0.00000551
Mg      -1.59435000       8.28448562      10.36825605      -0.00096474      -0.00120062      -0.00000699
Mg      -1.59434997      10.12548246      12.96031995       0.00176600       0.00096663      -0.00000406
Mg       1.59435000       8.28448562      10.36825605       0.00050368      -0.00422181      -0.00000701
Mg       1.59435003      10.12548246      12.96031995      -0.00532794       0.00024196      -0.00000513
Mg       4.78305000       8.28448562      10.36825605      -0.00115558       0.00175415      -0.00000746
Mg       4.78305003      10.12548246      12.96031995      -0.00042828       0.00181146      -0.00000490
Mg       7.97175000       8.28448562      10.36825605       0.00037885      -0.00132181      -0.00000793
Mg       7.97175003      10.12548246      12.96031995       0.00198785       0.00274028      -0.00000419
120
Lattice="15.9435 0.0 0.0 -6.3774 11.04598082 0.0 0.0 0.0 15.552384" Properties=species:S:1:pos:R:3:forces:R:3 energy=-180.5721204 stress="0.0002231147523682553 -5.167900275480041e-05 -3.4523659427998067e-07 -5.167900275480041e-05 0.00285944554459448 -2.94738416395197e-06 -3.4523659427998067e-07 -2.94738416395197e-06 0.0033769611850274234" free_energy=-180.57388874 pbc="T T T"
Mg       0.00242348       0.00330761      15.54796075      -0.02881712      -0.00287802       0.01203897
Mg       0.00636193       1.84526644       2.58429486      -0.02726853      -0.01751647       0.01559411
Mg       3.17859176       0.00710212       0.00559046       0.03463847      -0.01936919      -0.02039709
Mg       3.18493112       1.83636117       2.58367152       0.01546973       0.02253586       0.01274438
Mg       0.00109152      11.03798486      15.55213314      -0.00914514       0.01159615       0.00156897
Mg       6.38158399       1.84613808       2.58725572      -0.01670904      -0.00750427       0.00501812
Mg       9.56413646       0.00238527       0.00137094       0.00203987      -0.00614942      -0.00717605
Mg       9.56527996       1.84388470       2.58453157       0.00582521      -0.01161300       0.03234020
Mg       6.36904966      11.03488557       0.00355279       0.02390496       0.04006221      -0.01431778
Mg      12.74910871       1.84846746       2.58849960       0.02412685      -0.01873686       0.00847277
Mg      -1.59402472       2.77129487       0.00961122      -0.02023356      -0.02581073      -0.03259790
Mg      -1.59078133       4.59606549       2.58922543       0.00225396       0.03108839       0.00678959
Mg       1.58371900       2.76450943       0.00293738       0.02740087       0.00515647      -0.01589316
Mg       1.60429186       4.60489466       2.59223124      -0.02320390      -0.00397456       0.00278284
Mg       4.78349951       2.76456367      15.55073498      -0.00031479      -0.01763936       0.00155050
Mg       4.78056409       4.60036105       2.58934876       0.01071719      -0.00046285       0.01218517
Mg       7.97592806       2.75872145       0.00083236      -0.02096771       0.01437916      -0.00882893
Mg       7.97752091       4.60219855       2.59628855      -0.01129912      -0.00401290      -0.00154673
Mg      11.15116674       2.76298641       0.00421610       0.02672063      -0.00305013      -0.02341315
Mg      11.16473006       4.60172766       2.59611187      -0.01051287       0.00461651      -0.01637395
Mg      12.74569011       5.52839178       0.00238620       0.00213056      -0.01257440      -0.00482903
Mg      -3.19532580       7.36085549       2.58071112       0.02657506       0.01392576       0.03819884
Mg       0.00385300       5.53814174      15.55028443      -0.01474580      -0.04637647       0.00517532
Mg       0.00710672       7.35299672       2.57855929      -0.02678891       0.03935956       0.03704173
Mg       3.18626313       5.52086362      15.54868627       0.01411647      -0.00143798      -0.00703209
Mg       3.18278225       7.36114766       2.58451492       0.01446800       0.00391101       0.00830557
Mg       6.37788312       5.52541357       0.00621442      -0.00776223      -0.01799584      -0.00767430
Mg       6.37559577       7.35334489       2.59386253      -0.00048061       0.02982535       0.00401596
Mg       9.55830576       5.52904239      15.54703071       0.01344398      -0.02420745       0.01545257
Mg       9.56978387       7.35451875       2.58357105      -0.01635689       0.02367437       0.02879192
Mg      11.15559224       8.29162176       0.00240098       0.00698824      -0.01322942      -0.00507942
Mg      -4.78828722      10.12414556       2.58853195       0.00166143      -0.00199506       0.00542880
Mg      -1.59734961       8.28402665       0.00279072      -0.00365914       0.01559148      -0.00383174
Mg      -1.59377664      10.12950761       2.59075936       0.00448844      -0.01290927       0.00251777
Mg       1.59869904       8.28542430       0.00062629       0.00211388      -0.00030871      -0.00654904
Mg       1.59155491      10.13001749       2.59940089       0.00314800      -0.00465564      -0.01652671
Mg       4.78806949       8.28324957      15.54906543      -0.01848156      -0.00256986       0.01880709
Mg       4.78209760      10.12708490       2.58578944      -0.01042343      -0.00681762       0.01969509
Mg       7.97143968       8.28128460       0.00170376      -0.00030632       0.01347004       0.01092712
Mg       7.96608151      10.12533245       2.59509412       0.01184629       0.00113574      -0.02093547
Mg       9.56141803      11.04458240       5.17564801       0.00564199       0.01226058       0.01136274
Mg       0.00816055       1.83799068       7.77886825      -0.01753016       0.01087686      -0.00977192
Mg       3.18469671       0.00712775       5.17272338       0.00685726      -0.01940861       0.02154669
Mg       3.18868253       1.83337147       7.77480908       0.00534006       0.02846703      -0.01172906
Mg       6.38156492       0.00318179       5.18884981      -0.01816383      -0.01036474      -0.00844734
Mg       6.38012340       1.84358591       7.77454578      -0.01614426      -0.00981093       0.00968193
Mg       3.18409380      11.03791085       5.19797206       0.01729507       0.03040448      -0.02953800
Mg       9.56024858       1.84240112       7.77965847       0.01765061       0.00363135      -0.00585255
Mg       6.37846158      11.04568965       5.17778771      -0.01000324       0.00451087       0.01038191
Mg      12.74947433       1.84302422       7.76943947       0.02419075      -0.00090784       0.01429114
Mg      -1.58752637       2.77234545       5.18691182      -0.01581145      -0.04057993      -0.01043282
Mg      -1.59187276       4.60172866       7.77375090      -0.00147296       0.00845457       0.01026592
Mg       1.57924490       2.76288932       5.17348234       0.04267002       0.00295747       0.02493513
Mg       1.59365480       4.60432115       7.78237205       0.00408456      -0.01462102      -0.01331416
Mg       4.78348794       2.75818229       5.17774261      -0.00274078       0.00421119       0.01041351
Mg       4.77656253       4.60255048       7.77798519       0.00952772      -0.00688831      -0.00247501
Mg       7.97522418       2.75181407       5.18288640      -0.00121826       0.02826939      -0.00220328
Mg       7.95890844       4.59471026       7.77930823       0.04113931       0.02596690       0.00070470
Mg      11.16775113       2.76188712       5.18292730      -0.01961198      -0.01519881       0.00148150
Mg      11.16988654       4.60648428       7.77357547      -0.03557647      -0.00241924       0.01185560
Mg      -3.18382534       5.51918518       5.18324084      -0.00497951       0.02671276      -0.00587324
Mg      -3.18955307       7.37284359       7.77065986       0.00080312      -0.02016646       0.01268411
Mg      -0.00613401       5.53410002       5.18713438       0.03168715      -0.01064009      -0.01391401
Mg       0.00202725       7.36224640       7.77626976      -0.00608651       0.00264943      -0.00238017
Mg       3.19723471       5.51644125       5.18727839      -0.02825800       0.01127545      -0.00886750
Mg       3.19417701       7.36273784       7.77324560      -0.01462735       0.00950477       0.00218283
Mg       6.38304371       5.52708317       5.19222032      -0.01184402      -0.01673539      -0.01817292
Mg       6.37782502       7.36797772       7.77552931      -0.00462337      -0.00346146       0.00062274
Mg       9.57225205       5.51439840       5.18476544      -0.01255483       0.01763065       0.00875410
Mg       9.56710951       7.36687754       7.77409429      -0.00470489      -0.01962668       0.00696991
Mg      11.15442932       8.28615787       5.18274830       0.01087873      -0.01106456      -0.01137591
Mg      -4.77943653      10.12811361       7.77228011      -0.00042282      -0.00404637      -0.00025341
Mg      -1.59611721       8.29046624       5.18556717      -0.00019386      -0.00780830      -0.02572355
Mg      -1.58549648      10.12351947       7.77715438      -0.01894772       0.01409799      -0.00505883
Mg       1.59517651       8.29195933       5.17676592      -0.01350151      -0.03854026       0.01615026
Mg       1.58655694      10.11737702       7.78802907       0.02299374       0.01885286      -0.02116940
Mg       4.76847981       8.28458956       5.17744353       0.03752696       0.00187781       0.00701257
Mg       4.78574809      10.13065761       7.77930154      -0.00016800      -0.01019024      -0.01028477
Mg       7.97027417       8.28692667       5.18253834      -0.00228016      -0.01708811      -0.00795932
Mg       7.98035748      10.12317186       7.77251464      -0.01836210       0.02031803       0.01302157
Mg       0.00576887       0.00525811      10.37060757      -0.01781635      -0.02429136       0.00336167
Mg       0.00201130       1.84672197      12.96028138      -0.01066830      -0.01172704       0.01035892
Mg       3.19024365       0.00094057      10.36509674      -0.00286578      -0.00858381       0.01062749
Mg       3.19409923       1.83925279      12.96211967      -0.00898748      -0.00357087       0.00547045
Mg       6.37824848       0.00107124      10.37634049       0.00687496       0.00020479      -0.01174381
Mg       6.37861901       1.83256279      12.96603623      -0.00258369       0.00654410      -0.00936307
Mg       9.57354734       0.00020082      10.36685463      -0.02293483       0.00274883       0.00905699
Mg       9.56283458       1.84509335      12.95280519       0.01939042      -0.02851740       0.02245500
Mg      12.75229591       0.00887655      10.36637670       0.02742788      -0.01662089       0.00584320
Mg      12.75937977       1.83607784      12.95805677      -0.00634164       0.01030297       0.01861367
Mg      -1.58470740       2.76697324      10.36621387      -0.02211784      -0.01599500       0.00397550
Mg      -1.60370061       4.61256753      12.96836302       0.01308752      -0.03252587      -0.01045879
Mg       1.59812937       2.75596702      10.38046934       0.00622843       0.02119361      -0.03178634
Mg       1.59229542       4.59974237      12.95973518       0.01127168       0.01760994       0.00304673
Mg       4.78536914       2.75895076      10.36372829       0.00319062       0.00032485       0.01106990
Mg       4.78843900       4.59858829      12.95812722      -0.01866517      -0.00437242       0.00378579
Mg       7.97652132       2.76551970      10.37455943      -0.02352010      -0.01103078      -0.01302922
Mg       7.96603046       4.59921360      12.96181593       0.00991452       0.00867164       0.01047004
Mg      11.15636818       2.76054105      10.37060617       0.01900635       0.00999035      -0.01262370
Mg      11.15230657       4.59223917      12.96345002       0.01659580       0.03275920      -0.00450504
Mg      12.75469069       5.51450864      10.36604839      -0.00695239       0.02798897       0.00608844
Mg      -3.17895616       7.36532227      12.96347195      -0.03556498      -0.01032265      -0.01000699
Mg       0.00047824       5.52344948      10.36872496      -0.00464256       0.00355557       0.01026337
Mg      -0.00523540       7.35872837      12.97034890       0.03265395       0.02671970      -0.03341513
Mg       3.19084440       5.52693106      10.36541183      -0.00620077      -0.01031391       0.01391628
Mg       3.20195307       7.36416785      12.95741056      -0.03948357      -0.01695098      -0.00391672
Mg       6.37596595       5.52459362      10.37566692      -0.00638487       0.00314034      -0.01907434
Mg       6.37628188       7.35753121      12.97103570       0.02057751       0.01039455      -0.02118108
Mg       9.56060660       5.52458611      10.37592882       0.01437747      -0.00080869      -0.02187772
Mg       9.57200668       7.36800898      12.96740406      -0.00998399      -0.02052978      -0.02164322
Mg      11.15463987       8.28888689      10.37049871       0.00312993      -0.01835731      -0.00411902
Mg      -4.78122428      10.11421058      12.96836784       0.00678963       0.04122963      -0.02253540
Mg      -1.60419505       8.28702442      10.36651076       0.02042106      -0.02221166       0.00166182
Mg      -1.59243499      10.12077355      12.95413274       0.00274081       0.01049311       0.02268946
Mg       1.58647232       8.29133799      10.36184007       0.01804718      -0.03178482       0.03324604
Mg       1.60723324      10.11717411      12.96492688      -0.02750779       0.01171871      -0.01111182
Mg       4.78694812       8.29092940      10.36951144      -0.01190503      -0.01202681      -0.00821178
Mg       4.78296014      10.11274003      12.95995027       0.01405037       0.04519537       0.00127576
Mg       7.96556201       8.28261443      10.36710455       0.01253300       0.01439249       0.01173245
Mg       7.97869649      10.11684472      12.96754061      -0.01805920       0.02418986      -0.02347354
120
Lattice="15.9435 0.0 0.0 -6.3774 11.04598082 0.0 0.0 0.0 15.552384" Properties=species:S:1:pos:R:3:forces:R:3 energy=-180.52751987 stress="0.0002512763541631128 -9.030405769356238e-05 -2.8038419370749066e-06 -9.030405769356238e-05 0.0027660151898778727 2.3832079125542562e-06 -2.8038419370749066e-06 2.3832079125542562e-06 0.003351329753718998" free_energy=-180.52924902 pbc="T T T"
Mg       0.00483547       0.00661411      15.54354216      -0.05956929      -0.00127517       0.02374692
Mg       0.01271325       1.84952898       2.57653204      -0.05513392      -0.03518680       0.02962610
Mg       3.16849729       0.01419641       0.01117268       0.06803594      -0.03575526      -0.04488751
Mg       3.18116835       1.83173445       2.57528412       0.02783113       0.04512848       0.02547549
Mg       0.00217925      11.02999353      15.55188290      -0.02038460       0.02794681       0.00373254
Mg       6.38576160       1.85127623       2.58244957      -0.02828209      -0.01750786       0.01010403
Mg       9.56217375       0.00476800       0.00273893       0.00525648      -0.01791783      -0.01409829
Mg       9.56446235       1.84676803       2.57701199       0.01307802      -0.02239369       0.06441808
Mg       6.36070894      11.02380623       0.00709997       0.05344601       0.07677806      -0.02860528
Mg      12.74342709       1.85593067       2.58493873       0.04417594      -0.04266356       0.01588310
Mg      -1.59370738       2.78108426       0.01920953      -0.03637812      -0.04784816      -0.06766601
Mg      -1.58721181       4.58965120       2.58638961       0.00723935       0.05687045       0.01123984
Mg       1.57309881       2.76752565       0.00586838       0.05096436       0.01763418      -0.03105776
Mg       1.61422443       4.60729561       2.59239967      -0.04903561      -0.00875662       0.00531439
Mg       4.78394896       2.76762506      15.54908658      -0.00004260      -0.02821333       0.00055743
Mg       4.77808242       4.59822984       2.58663829       0.02301186       0.00029382       0.02012562
Mg       7.98009783       2.75595322       0.00166131      -0.03990265       0.02468482      -0.01657106
Mg       7.98328742       4.60190352       2.60051242      -0.02481486      -0.00503382      -0.00594485
Mg      11.14189422       2.76447640       0.00842302       0.05276449      -0.00524147      -0.04477828
Mg      11.16900589       4.60096505       2.60015331      -0.01983836       0.00484413      -0.03098795
Mg      12.73658101       5.53378819       0.00477069       0.01470289      -0.02565408      -0.00927568
Mg      -3.20194085       7.35772937       2.56937343       0.05457024       0.02376975       0.07553511
Mg       0.00770046       5.55327451      15.54818703      -0.02764636      -0.08836058       0.01070092
Mg       0.01420298       7.34202176       2.56506947      -0.05951721       0.07359688       0.08380230
Mg       3.18383200       5.51873627      15.54498558       0.02596347       0.00361687      -0.00735699
Mg       3.17687050       7.35830951       2.57696922       0.04006487       0.01208485       0.01889074
Mg       6.37836327       5.52782943       0.01242589      -0.01510130      -0.03816847      -0.01298113
Mg       6.37379138       7.34271435       2.59566272      -0.00089459       0.05244958       0.01145036
Mg       9.55051708       5.53508476      15.54168349       0.02769589      -0.04225359       0.02769239
Mg       9.57346150       7.34505963       2.57508956      -0.03042074       0.04293642       0.05378149
Mg      11.15073744       8.29875249       0.00479993       0.01847300      -0.03099037      -0.01227055
Mg      -4.79352380      10.12280778       2.58500218       0.00299023      -0.00564527       0.01458947
Mg      -1.60035059       8.28357366       0.00558004      -0.00468982       0.03202039      -0.00891361
Mg      -1.59320143      10.13352757       2.58945576       0.00534248      -0.02611741       0.00593848