120
Lattice="15.9435 0.0797175 0.0 -6.3221701 11.01409382 0.0 0.0 0.0 15.3984" Properties=species:S:1:pos:R:3:forces:R:3 energy=-180.51415743 stress="-0.0014267354736824283 0.0015697077509121524 -1.7370119897333106e-08 0.0015697077509121524 0.002253925480573334 2.488489688489655e-08 -1.7370119897333106e-08 2.488489688489655e-08 -0.0013961804154170316" free_energy=-180.50718743 pbc="T T T"
Mg       0.00000000       0.00000000       0.00000000      -0.00836505      -0.00104875      -0.00000062
Mg       0.00920502       1.84099684       2.56640005       0.00339487       0.00360421      -0.00000809
Mg       3.18870000       0.01594350       0.00000000      -0.01057805      -0.00025484       0.00000054
Mg       3.19790502       1.85694034       2.56640005       0.01175025       0.00185354      -0.00000427
Mg       6.37740000       0.03188700       0.00000000      -0.00714069      -0.00509202       0.00000187
Mg       6.38660502       1.87288384       2.56640005       0.00687377      -0.00124425      -0.00000921
Mg       9.56610000       0.04783050       0.00000000      -0.00993282       0.00308462       0.00000131
Mg       9.57530502       1.88882734       2.56640005       0.01059477       0.00126634      -0.00000843
Mg      12.75480000       0.06377400       0.00000000      -0.00633291      -0.00151455       0.00000156
Mg      12.76400502       1.90477084       2.56640005       0.00514360      -0.00032678      -0.00000425
Mg      -1.58054253       2.75352345       0.00000000      -0.00836181      -0.00104918       0.00000155
Mg      -1.57133751       4.59452030       2.56640005       0.00339507       0.00359820      -0.00000344
Mg       1.60815748       2.76946695       0.00000000      -0.01057824      -0.00025531       0.00000019
Mg       1.61736249       4.61046380       2.56640005       0.01175356       0.00184914      -0.00000444
Mg       4.79685748       2.78541046       0.00000000      -0.00714498      -0.00508707       0.00000410
Mg       4.80606249       4.62640730       2.56640005       0.00686906      -0.00124413      -0.00000531
Mg       7.98555748       2.80135395       0.00000000      -0.00993092       0.00308522       0.00000134
Mg       7.99476249       4.64235080       2.56640005       0.01059576       0.00127269      -0.00000555
Mg      11.17425748       2.81729745       0.00000000      -0.00633352      -0.00151595       0.00000383
Mg      11.18346249       4.65829430       2.56640005       0.00514929      -0.00032697      -0.00000717
Mg      -3.16108505       5.50704691       0.00000000      -0.00835672      -0.00105416       0.00000343
Mg      -3.15188003       7.34804375       2.56640005       0.00339532       0.00359994      -0.00000942
Mg       0.02761495       5.52299041       0.00000000      -0.01057875      -0.00025793       0.00000245
Mg       0.03681997       7.36398725       2.56640005       0.01175201       0.00184898      -0.00000636
Mg       3.21631495       5.53893391       0.00000000      -0.00713976      -0.00508909      -0.00000037
Mg       3.22551997       7.37993075       2.56640005       0.00687138      -0.00124235      -0.00000508
Mg       6.40501495       5.55487741       0.00000000      -0.00993024       0.00308826       0.00000409
Mg       6.41421997       7.39587425       2.56640005       0.01059249       0.00126815      -0.00000898
Mg       9.59371495       5.57082091       0.00000000      -0.00632971      -0.00151602       0.00000235
Mg       9.60291997       7.41181775       2.56640005       0.00514095      -0.00032787      -0.00000714
Mg      -4.74162757       8.26057036       0.00000000      -0.00836244      -0.00105115       0.00000396
Mg      -4.73242256      10.10156721       2.56640005       0.00339401       0.00359865      -0.00001028
Mg      -1.55292757       8.27651387       0.00000000      -0.01057640      -0.00025430       0.00000212
Mg      -1.54372256      10.11751071       2.56640005       0.01175001       0.00185267      -0.00000720
Mg       1.63577243       8.29245736       0.00000000      -0.00713831      -0.00509173       0.00000076
Mg       1.64497744      10.13345421       2.56640005       0.00687510      -0.00124726      -0.00000760
Mg       4.82447243       8.30840086       0.00000000      -0.00993386       0.00308398       0.00000066
Mg       4.83367744      10.14939771       2.56640005       0.01059578       0.00126580      -0.00001241
Mg       8.01317243       8.32434436       0.00000000      -0.00633449      -0.00151505       0.00000311
Mg       8.02237744      10.16534121       2.56640005       0.00514366      -0.00032638      -0.00000808
Mg       0.00000000       0.00000000       5.13279995      -0.00836267      -0.00105162      -0.00000657
Mg       0.00920502       1.84099684       7.69920000       0.00340051       0.00360334       0.00000011
Mg       3.18870000       0.01594350       5.13279995      -0.01057845      -0.00025420      -0.00000706
Mg       3.19790502       1.85694034       7.69920000       0.01175510       0.00185539       0.00000230
Mg       6.37740000       0.03188700       5.13279995      -0.00714174      -0.00509537      -0.00000969
Mg       6.38660502       1.87288384       7.69920000       0.00687549      -0.00124652      -0.00000174
Mg       9.56610000       0.04783050       5.13279995      -0.00992898       0.00308576      -0.00000431
Mg       9.57530502       1.88882734       7.69920000       0.01059991       0.00126867       0.00000211
Mg      12.75480000       0.06377400       5.13279995      -0.00633087      -0.00151530      -0.00000532
Mg      12.76400502       1.90477084       7.69920000       0.00514817      -0.00032579       0.00000158
Mg      -1.58054253       2.75352345       5.13279995      -0.00836323      -0.00105087      -0.00000489
Mg      -1.57133751       4.59452030       7.69920000       0.00340158       0.00359988      -0.00000353
Mg       1.60815748       2.76946695       5.13279995      -0.01057921      -0.00025438      -0.00000720
Mg       1.61736249       4.61046380       7.69920000       0.01175723       0.00185404      -0.00000550
Mg       4.79685748       2.78541046       5.13279995      -0.00713946      -0.00508616      -0.00000750
Mg       4.80606249       4.62640730       7.69920000       0.00687257      -0.00124328      -0.00000389
Mg       7.98555748       2.80135395       5.13279995      -0.00993433       0.00308860      -0.00000800
Mg       7.99476249       4.64235080       7.69920000       0.01059910       0.00126900      -0.00000153
Mg      11.17425748       2.81729745       5.13279995      -0.00633568      -0.00151524      -0.00000447
Mg      11.18346249       4.65829430       7.69920000       0.00515017      -0.00032852      -0.00000035
Mg      -3.16108505       5.50704691       5.13279995      -0.00835857      -0.00105110      -0.00000489
Mg      -3.15188003       7.34804375       7.69920000       0.00340421       0.00360077      -0.00000204
Mg       0.02761495       5.52299041       5.13279995      -0.01057342      -0.00025816      -0.00000532
Mg       0.03681997       7.36398725       7.69920000       0.01175575       0.00185266      -0.00000035
Mg       3.21631495       5.53893391       5.13279995      -0.00714144      -0.00509137      -0.00000560
Mg       3.22551997       7.37993075       7.69920000       0.00687211      -0.00124254       0.00000087
Mg       6.40501495       5.55487741       5.13279995      -0.00993382       0.00308546      -0.00000505
Mg       6.41421997       7.39587425       7.69920000       0.01059793       0.00127026      -0.00000139
Mg       9.59371495       5.57082091       5.13279995      -0.00633190      -0.00151537      -0.00000581
Mg       9.60291997       7.41181775       7.69920000       0.00514780      -0.00032669      -0.00000388
Mg      -4.74162757       8.26057036       5.13279995      -0.00836521      -0.00105548      -0.00000804
Mg      -4.73242256      10.10156721       7.69920000       0.00339973       0.00360426      -0.00000248
Mg      -1.55292757       8.27651387       5.13279995      -0.01057695      -0.00026288      -0.00000930
Mg      -1.54372256      10.11751071       7.69920000       0.01175822       0.00185110      -0.00000406
Mg       1.63577243       8.29245736       5.13279995      -0.00714230      -0.00509296      -0.00001048
Mg       1.64497744      10.13345421       7.69920000       0.00688135      -0.00124593      -0.00000000
Mg       4.82447243       8.30840086       5.13279995      -0.00993177       0.00308774      -0.00000999
Mg       4.83367744      10.14939771       7.69920000       0.01060210       0.00126877      -0.00000254
Mg       8.01317243       8.32434436       5.13279995      -0.00633602      -0.00151471      -0.00000614
Mg       8.02237744      10.16534121       7.69920000       0.00514428      -0.00032231       0.00000083
Mg       0.00000000       0.00000000      10.26560005      -0.00836746      -0.00104633       0.00000528
Mg       0.00920502       1.84099684      12.83199995       0.00339353       0.00360465       0.00000533
Mg       3.18870000       0.01594350      10.26560005      -0.01058029      -0.00025535       0.00000726
Mg       3.19790502       1.85694034      12.83199995       0.01175026       0.00185087       0.00000497
Mg       6.37740000       0.03188700      10.26560005      -0.00713802      -0.00509567       0.00000654
Mg       6.38660502       1.87288384      12.83199995       0.00687243      -0.00124662       0.00001132
Mg       9.56610000       0.04783050      10.26560005      -0.00993349       0.00308404       0.00000674
Mg       9.57530502       1.88882734      12.83199995       0.01059695       0.00126304       0.00000915
Mg      12.75480000       0.06377400      10.26560005      -0.00633745      -0.00151653       0.00000600
Mg      12.76400502       1.90477084      12.83199995       0.00514214      -0.00032543       0.00000855
Mg      -1.58054253       2.75352345      10.26560005      -0.00836628      -0.00105054       0.00000883
Mg      -1.57133751       4.59452030      12.83199995       0.00339472       0.00360019       0.00000800
Mg       1.60815748       2.76946695      10.26560005      -0.01058360      -0.00025151       0.00000690
Mg       1.61736249       4.61046380      12.83199995       0.01174866       0.00185416       0.00000835
Mg       4.79685748       2.78541046      10.26560005      -0.00714097      -0.00509019       0.00000554
Mg       4.80606249       4.62640730      12.83199995       0.00687020      -0.00124137       0.00000727
Mg       7.98555748       2.80135395      10.26560005      -0.00993668       0.00308395       0.00000495
Mg       7.99476249       4.64235080      12.83199995       0.01059511       0.00126941       0.00000710
Mg      11.17425748       2.81729745      10.26560005      -0.00633347      -0.00151857       0.00000504
Mg      11.18346249       4.65829430      12.83199995       0.00514885      -0.00032592       0.00001004
Mg      -3.16108505       5.50704691      10.26560005      -0.00836050      -0.00105695       0.00000012
Mg      -3.15188003       7.34804375      12.83199995       0.00339751       0.00360068       0.00000995
Mg       0.02761495       5.52299041      10.26560005      -0.01057934      -0.00025844       0.00000292
Mg       0.03681997       7.36398725      12.83199995       0.01175556       0.00184758       0.00000874
Mg       3.21631495       5.53893391      10.26560005      -0.00714502      -0.00509170       0.00000437
Mg       3.22551997       7.37993075      12.83199995       0.00687000      -0.00124410       0.00000959
Mg       6.40501495       5.55487741      10.26560005      -0.00993897       0.00308369       0.00000811
Mg       6.41421997       7.39587425      12.83199995       0.01059299       0.00127227       0.00000799
Mg       9.59371495       5.57082091      10.26560005      -0.00633365      -0.00151473       0.00000515
Mg       9.60291997       7.41181775      12.83199995       0.00514477      -0.00032385       0.00001105
Mg      -4.74162757       8.26057036      10.26560005      -0.00836525      -0.00105408       0.00000288
Mg      -4.73242256      10.10156721      12.83199995       0.00339118       0.00360085       0.00000706
Mg      -1.55292757       8.27651387      10.26560005      -0.01057766      -0.00025679       0.00000807
Mg      -1.54372256      10.11751071      12.83199995       0.01175611       0.00184813       0.00000697
Mg       1.63577243       8.29245736      10.26560005      -0.00713988      -0.00509366       0.00000623
Mg       1.64497744      10.13345421      12.83199995       0.00687647      -0.00124947       0.00000711
Mg       4.82447243       8.30840086      10.26560005      -0.00993767       0.00308516       0.00000699
Mg       4.83367744      10.14939771      12.83199995       0.01059408       0.00126803       0.00000845
Mg       8.01317243       8.32434436      10.26560005      -0.00633935      -0.00151409       0.00000414
Mg       8.02237744      10.16534121      12.83199995       0.00514001      -0.00032460       0.00000910
120
Lattice="15.9435 0.0797175 0.0 -6.3221701 11.01409382 0.0 0.0 0.0 15.3984" Properties=species:S:1:pos:R:3:forces:R:3 energy=-180.49902259 stress="-0.0014040394365989243 0.0015539632882402377 -2.544900447969388e-06 0.0015539632882402377 0.002229034254798184 8.235509012365687e-06 -2.544900447969388e-06 8.235509012365687e-06 -0.0013473301894282642" free_energy=-180.49206278 pbc="T T T"
Mg       0.00495943       0.00107292       0.00218396      -0.03394004      -0.02993538       0.00760840
Mg       0.00396938       1.83743405       2.56932944       0.01844032       0.00187564       0.01050380
Mg       3.18540973       0.01861624       0.00122895       0.00174972      -0.00741636      -0.01052048
Mg       3.19947390       1.85547204       2.57144072       0.00304075       0.00711748      -0.00800007
Mg       0.05196415      11.04013943      15.39579105       0.01025301       0.00708446       0.00445541
Mg       6.38297690       1.86450211       2.57425308       0.02100747       0.01505613      -0.02822246
Mg       3.24186410      11.05329746      15.39080936      -0.01282919       0.03965206       0.02273067
Mg       9.57595872       1.88581104       2.58035408      -0.00299461       0.00290340      -0.04907942
Mg      12.75102526       0.06399879      15.38859107       0.00871905      -0.00448287       0.01773460
Mg      12.75967643       1.90609755       2.56041593       0.01677043      -0.01068622       0.00932785
Mg      -1.57512636       2.75110148       0.00549230      -0.02624678      -0.00273367      -0.01165727
Mg      -1.57965116       4.59019134       2.56733720       0.02864937       0.01491567      -0.00358856
Mg       1.59591848       2.75721307       0.00716210       0.03641213       0.04499268      -0.01339807
Mg       1.62071852       4.60762692       2.57148830      -0.00304464       0.01394709      -0.01839392
Mg       4.80489622       2.78304611      15.39235905      -0.03724555      -0.00695076       0.01880131
Mg       4.81298149       4.62759539       2.56445554      -0.01449990      -0.00410493      -0.00353594
Mg       7.98063243       2.79648877      15.39795052       0.01256997       0.00261271       0.01951200
Mg       7.99470345       4.64145392       2.57098616       0.02339254      -0.00966594      -0.02025190
Mg      11.17996591       2.81796775      15.39791002      -0.03935687       0.00030378      -0.00430856
Mg      11.18618357       4.65670174       2.56511690      -0.00802311       0.00371645      -0.00549257
Mg      -3.15832358       5.50702106       0.00021758      -0.02017314       0.00238060       0.00359439
Mg      -3.15371241       7.34967499       2.56692360       0.01070832       0.00383467      -0.00367185
Mg       0.01891028       5.52400065       0.00084383       0.02245709      -0.00866311       0.01284750
Mg       0.02908908       7.36617906       2.57060597       0.03765243      -0.00799763      -0.00456411
Mg       3.21736805       5.53269029      15.39510166      -0.01203000      -0.00398154       0.01289146
Mg       3.22777568       7.38764597       2.56006469      -0.00472619      -0.02565930       0.01314992
Mg       6.41465859       5.54974552      15.39702923      -0.03335976       0.01279046       0.00304726
Mg       6.41270256       7.38595579       2.55957533       0.01101198       0.02682155       0.00332810
Mg       9.59718909       5.58107732      15.39597213      -0.00183617      -0.03734444       0.00717885
Mg       9.60665361       7.40765253       2.56969346      -0.00345504       0.01833524      -0.02286541
Mg      -4.73897158       8.26889996      15.39797254      -0.02082217      -0.01182117      -0.00051070
Mg      -4.72907568      10.09845602       2.57246179      -0.00306602       0.01856829      -0.00110888
Mg      -1.54670997       8.27706035       0.00335947      -0.02973942      -0.00131582      -0.01109824
Mg      -1.53676741      10.12223725       2.56290169      -0.00626608      -0.00881603       0.01508073
Mg       1.63125093       8.28915463      15.39286335      -0.00197040      -0.00861937       0.01133639
Mg       1.65715357      10.12867143       2.56900330      -0.02332770       0.01232043      -0.00912002
Mg       4.81517738       8.31080731      15.38900744       0.00935903      -0.02020195       0.01537589
Mg       4.84018721      10.14813017       2.56079426       0.00318738       0.00726109      -0.00257124
Mg       7.99867674       8.31683393      15.39226451       0.02753516       0.03120739       0.01066061
Mg       8.01594221      10.16580200       2.57030093       0.03622128      -0.01264773      -0.01564908
Mg       0.00634853       0.00287413       5.14395178      -0.02499839      -0.01415774      -0.03680001
Mg       0.01327564       1.83391083       7.69772853      -0.00302413       0.02151904       0.01228118
Mg       3.19317721       0.01743673       5.14402353      -0.01561751       0.00362172      -0.02438724
Mg       3.19949497       1.86016381       7.70443376       0.00953528       0.00290321      -0.00957540
Mg       6.37449850       0.03767469       5.13793824       0.00680835      -0.01615047      -0.00545327
Mg       6.38443543       1.88311545       7.69740670       0.00295934      -0.02093772       0.02060625
Mg       9.56861809       0.04881335       5.13349365      -0.01237808       0.00756093       0.00399060
Mg       9.56697198       1.88616254       7.69746275       0.02908607       0.02053114       0.00940024
Mg      12.75804799       0.06681621       5.12726561      -0.00857516      -0.00384059       0.00354932
Mg      12.76729712       1.89026441       7.69743842      -0.00664922       0.06385826       0.00514167
Mg      -1.57865369       2.75636049       5.12848763      -0.02844645      -0.01711121       0.00945886
Mg      -1.57155408       4.59473770       7.68751508      -0.00534935      -0.00732692       0.04184208
Mg       1.59952394       2.77450680       5.13630709       0.01343630      -0.01688408      -0.00522441
Mg       1.60626806       4.60448595       7.70547993       0.05070785       0.01991352      -0.00735857
Mg       4.79342386       2.78596910       5.12810605      -0.01218293       0.00776087       0.01835510
Mg       4.81879895       4.63855498       7.69644322      -0.04139027      -0.01984747       0.00981401
Mg       7.97943448       2.80962187       5.13538719      -0.00007700      -0.01824092      -0.00062495
Mg       7.98905461       4.64197454       7.70024170       0.03790947       0.00837491       0.00413264
Mg      11.16777010       2.81954772       5.12615831       0.01227477       0.00132370       0.03409130
Mg      11.18193806       4.66238629       7.70307593       0.02630767      -0.01292747      -0.01755454
Mg      -3.16196962       5.51143061       5.13072270      -0.01997070       0.00157833       0.00994824
Mg      -3.14591548       7.36745249       7.69771467      -0.01212393      -0.05772180       0.00274701
Mg       0.01816211       5.52072351       5.13278794       0.01132115       0.01867239      -0.00885236
Mg       0.04059221       7.35454524       7.70067778       0.01113008       0.02697702       0.00363872
Mg       3.20837109       5.53686355       5.13092535       0.01190355       0.01075264       0.00908651
Mg       3.23125494       7.37917595       7.70133791      -0.00635855      -0.00311270      -0.01057366
Mg       6.40887013       5.55571528       5.12736247      -0.03488528       0.01591416       0.01454146
Mg       6.41579598       7.39940947       7.70486507       0.00784918       0.00782187      -0.03176729
Mg       9.59433165       5.57386720       5.13013787       0.00125856      -0.01628741       0.01054117
Mg       9.59660828       7.40644095       7.69509001       0.02655726       0.02353259       0.00999535
Mg      -4.74268559       8.26714622       5.13218463      -0.00652673      -0.01729356       0.00473903
Mg      -4.73180828      10.09752932       7.69386137      -0.00005020       0.01568202       0.02474306
Mg      -1.55081844       8.28340533       5.12856816      -0.01169558      -0.00949253       0.01446798
Mg      -1.54585377      10.11196273       7.70444454       0.03238483       0.03012881       0.00527026
Mg       1.63725100       8.29897101       5.13746258      -0.00941386      -0.02794781      -0.01192011
Mg       1.64120695      10.13458665       7.69519195       0.00946328      -0.00393621       0.01665236
Mg       4.82461368       8.31835629       5.12876156      -0.00268559      -0.02908240       0.00950971
Mg       4.83845315      10.15579716       7.70128356      -0.01152375      -0.01450263      -0.01016855
Mg       8.01311589       8.31067193       5.12946158      -0.01213243       0.04505683       0.00676681
Mg       8.01884622      10.17177833       7.69500840       0.02576278      -0.03578933       0.00770828
Mg       9.62069957      11.09321833      10.26271963      -0.01284077       0.00384170      -0.00522027
Mg       0.01642249       1.83990671      12.84168631      -0.01256157       0.01531828      -0.02112937
Mg      -3.13614140      11.02955286      10.27224600      -0.00967190      -0.00468764      -0.02459675
Mg       3.19729008       1.86289554      12.82197128       0.01261797      -0.00326357       0.04026298
Mg       6.37523791       0.03416674      10.27253780      -0.00729687      -0.01985850      -0.03077599
Mg       6.38336810       1.86543147      12.82474284       0.00043449       0.00712696       0.02221080
Mg       9.56168892       0.04939759      10.26111296       0.00285472       0.00328333       0.00351514
Mg       9.56288198       1.89166892      12.82953651       0.04734734      -0.00409078       0.00998255
Mg       6.43129918      11.07780196      10.26566026      -0.01018436       0.00070607       0.00487053
Mg      12.75968279       1.90404716      12.83193019       0.02256327       0.00653047      -0.00246912
Mg      -1.56989255       2.75109109      10.27238258      -0.02694862       0.00812947      -0.01794057
Mg      -1.56742186       4.59458847      12.84115969       0.00442809      -0.00294749      -0.01814434
Mg       1.60933782       2.77168200      10.26699992      -0.02124492      -0.01640056       0.00206267
Mg       1.61663394       4.61708713      12.82967926       0.01477332      -0.02253901       0.03202039
Mg       4.78355764       2.78527558      10.26756735       0.03720800       0.00559410      -0.01708317
Mg       4.81753078       4.62376131      12.83466818      -0.01441561      -0.00069779      -0.00384028
Mg       7.98275173       2.80309233      10.27546919      -0.01491003       0.00901579      -0.03439826
Mg       7.99366701       4.63780962      12.83414926       0.02806704       0.01491062      -0.00654467
Mg      11.17451402       2.82531693      10.27031951       0.00354332      -0.02915531      -0.02525632
Mg      11.19146309       4.65852373      12.82515028      -0.00761626       0.00015151       0.02254089
Mg      -3.14594748       5.51019198      10.26822363      -0.02222841      -0.00617512      -0.01663269
Mg      -3.15553391       7.34611115      12.83812790       0.01456110       0.01989857      -0.00955056
Mg       0.03924251       5.52084692      10.27129823      -0.03989075       0.00425635      -0.01447691
Mg       0.04137183       7.36479414      12.82762773      -0.00562398       0.00546048       0.00208171
Mg       3.21794864       5.53252452      10.28058008       0.00275969       0.00556689      -0.04712541
Mg       3.22400871       7.37253726      12.83202135       0.01081916       0.01599597      -0.00208245
Mg       6.41060332       5.56006723      10.26357963      -0.01505435      -0.02399389       0.00827981
Mg       6.40585403       7.38845974      12.82927058       0.02691974       0.02240935       0.00149563
Mg       9.60775826       5.57227173      10.26247125      -0.03968235       0.00072776       0.01056489
Mg       9.60432242       7.40667890      12.83298421      -0.00250731       0.01767155      -0.00399130
Mg      11.19563145       8.34531615      10.26589416       0.00030694      -0.02037515      -0.00362922
Mg      -4.74096922      10.11166078      12.82386990       0.03187400      -0.03034724       0.02708623
Mg      -1.56071475       8.27432234      10.26905961       0.02426458       0.00225783       0.00050925
Mg      -1.54401877      10.11561334      12.83288659       0.00092718      -0.00037505       0.00558675
Mg       1.64898268       8.28889115      10.26389930      -0.04325168       0.01018620      -0.00390549
Mg       1.65050227      10.13471066      12.82546641      -0.00996499      -0.01239937       0.01126120
Mg       4.82649112       8.30250460      10.25779337      -0.01711395       0.02261300       0.02548721
Mg       4.82996028      10.15103112      12.83297929       0.01842016      -0.00518956      -0.02813288
Mg       8.00770804       8.31953381      10.26696789       0.01124460       0.01582255      -0.00287114
Mg       8.02675529      10.17125995      12.82470249      -0.00871678      -0.01991426       0.01409457
120
Lattice="15.9435 0.0797175 0.0 -6.3221701 11.01409382 0.0 0.0 0.0 15.3984" Properties=species:S:1:pos:R:3:forces:R:3 energy=-180.45209997 stress="-0.00142913512173002 0.0015525433761216447 3.398308232260532e-06 0.0015525433761216447 0.00215485207135036 -3.541806768573714e-07 3.398308232260532e-06 -3.541806768573714e-07 -0.0013950657006116763" free_energy=-180.44518949 pbc="T T T"
Mg       0.00990544       0.00213385       0.00437099      -0.06372339      -0.05675751       0.01344407
Mg      -0.00125899       1.83387196       2.57226315       0.03012823      -0.00389418       0.01814185
Mg       3.18212005       0.02128599       0.00245374       0.01162969      -0.00932502      -0.01952195
Mg       3.20104415       1.85400639       2.57647830      -0.00669889       0.01255806      -0.01789028
Mg       0.04870252      11.03430060      15.39318364       0.02846340       0.01898899       0.00965818
Mg       6.37935723       1.85612628       2.58209502       0.04369384       0.03343039      -0.05244497
Mg       3.23979305      11.04468614      15.38322780      -0.01647161       0.06960718       0.04545729
Mg       9.57661137       1.88279574       2.59428840      -0.01000308       0.00773849      -0.10404203
Mg      12.74725398       0.06422173      15.37878921       0.02509756      -0.00796189       0.03641030
Mg      12.75535459       1.90741976       2.55443534       0.02210374      -0.02066287       0.01782265
Mg      -1.56972060       2.74867813       0.01097998      -0.05137381      -0.00514967      -0.02856267
Mg      -1.58795359       4.58586818       2.56827280       0.05315079       0.02552292      -0.00630499
Mg       1.58369377       2.74497693       0.01431866       0.08508860       0.08278255      -0.02449498
Mg       1.62407330       4.60479556       2.57656931      -0.01863056       0.02541659      -0.03786181
Mg       4.81292025       2.78067871      15.38632550      -0.06828162      -0.00998871       0.03869680
Mg       4.81989474       4.62878181       2.56250965      -0.03412995      -0.01207182      -0.00682113
Mg       7.97571237       2.79162438      15.39750889       0.03424248       0.00325995       0.03643181
Mg       7.99465360       4.64055300       2.57556426       0.03576976      -0.02045457      -0.04099957
Mg      11.18565865       2.81863808      15.39741820      -0.07004802      -0.00001371      -0.01008002
Mg      11.18890134       4.65511050       2.56383175      -0.02337143       0.00981302      -0.01272265
Mg      -3.15557004       5.50699595       0.00043639      -0.03195423       0.00744533       0.00731098
Mg      -3.15554067       7.35130768       2.56744576       0.01590612       0.00156849      -0.00665071
Mg       0.01021463       5.52500717       0.00169259       0.05754086      -0.01578444       0.02344348
Mg       0.02137301       7.36836762       2.57480989       0.06814503      -0.02247667      -0.01112003
Mg       3.21841621       5.52644499      15.39180841      -0.01556759      -0.00555200       0.02484540
Mg       3.23002931       7.39535090       2.55373456      -0.01297306      -0.05389883       0.02670057
Mg       6.42428886       5.54461854      15.39565939      -0.06032437       0.01789148       0.00405126
Mg       6.41118960       7.37604796       2.55275199       0.00884313       0.05404614       0.00781248
Mg       9.60066258       5.59131870      15.39354704       0.00313212      -0.06886068       0.01179201
Mg       9.61038602       7.40349448       2.57297763      -0.01738669       0.03935657      -0.04579558
Mg      -4.73632402       8.27722476      15.39754477      -0.03016451      -0.02039119      -0.00054124
Mg      -4.72573011      10.09535211       2.57852321      -0.00995379       0.03295605      -0.00724224
Mg      -1.54050410       8.27760610       0.00671447      -0.05115799      -0.00332327      -0.02168966
Mg      -1.52981495      10.12696015       2.55940933      -0.02192528      -0.01935707       0.03039118