64
Lattice="7.43611904 0.0 0.0 0.0 7.43611904 0.0 0.0 0.0 14.91131016" Properties=species:S:1:pos:R:3:forces:R:3 energy=-207.35935055 stress="-0.024917543641390778 -0.0 -0.0 -0.0 -0.024917543641390778 -0.0 -0.0 -0.0 -0.022926135011044596" free_energy=-207.35791908 pbc="T T T"
Mg       0.00000000       0.00000000       0.00000000      -0.00000000      -0.00000000       0.00000000
Mg       1.85902976       1.85902976       3.72782754      -0.00000000       0.00000000       0.00000000
Mg       3.71805952       0.00000000       0.00000000       0.00000000       0.00000000      -0.00000000
Mg       5.57708928       1.85902976       3.72782754      -0.00000000      -0.00000000       0.00000000
Mg       0.00000000       3.71805952       0.00000000       0.00000000      -0.00000000      -0.00000000
Mg       1.85902976       5.57708928       3.72782754      -0.00000000      -0.00000000       0.00000000
Mg       3.71805952       3.71805952       0.00000000      -0.00000000      -0.00000000       0.00000000
Mg       5.57708928       5.57708928       3.72782754       0.00000000      -0.00000000       0.00000000
Mg       0.00000000       0.00000000       7.45565508       0.00000000      -0.00000000       0.00000000
Mg       1.85902976       1.85902976      11.18348262       0.00000000       0.00000000      -0.00000000
Mg       3.71805952       0.00000000       7.45565508       0.00000000      -0.00000000       0.00000000
Mg       5.57708928       1.85902976      11.18348262       0.00000000      -0.00000000      -0.00000000
Mg       0.00000000       3.71805952       7.45565508      -0.00000000      -0.00000000      -0.00000000
Mg       1.85902976       5.57708928      11.18348262      -0.00000000      -0.00000000      -0.00000000
Mg       3.71805952       3.71805952       7.45565508       0.00000000      -0.00000000      -0.00000000
Mg       5.57708928       5.57708928      11.18348262      -0.00000000      -0.00000000      -0.00000000
Cu       1.85902976       1.85902976       0.00000000      -0.00000000      -0.00000000       0.00000000
Cu       0.00000000       1.85902976       1.86391377      -0.00000000      -0.00000000       0.00000000
Cu       1.85902976       0.00000000       1.86391377       0.00000000      -0.00000000       0.00000000
Cu       0.00000000       0.00000000       3.72782754      -0.00000000       0.00000000       0.00000000
Cu       1.85902976       0.00000000       5.59174131      -0.00000000      -0.00000000      -0.00000000
Cu       0.00000000       1.85902976       5.59174131      -0.00000000       0.00000000      -0.00000000
Cu       5.57708928       1.85902976       0.00000000      -0.00000000      -0.00000000      -0.00000000
Cu       3.71805952       1.85902976       1.86391377       0.00000000       0.00000000       0.00000000
Cu       5.57708928       0.00000000       1.86391377      -0.00000000       0.00000000      -0.00000000
Cu       3.71805952       0.00000000       3.72782754       0.00000000       0.00000000       0.00000000
Cu       5.57708928       0.00000000       5.59174131       0.00000000       0.00000000       0.00000000
Cu       3.71805952       1.85902976       5.59174131       0.00000000       0.00000000       0.00000000
Cu       1.85902976       5.57708928       0.00000000      -0.00000000      -0.00000000      -0.00000000
Cu       0.00000000       5.57708928       1.86391377      -0.00000000       0.00000000       0.00000000
Cu       1.85902976       3.71805952       1.86391377      -0.00000000      -0.00000000       0.00000000
Cu       0.00000000       3.71805952       3.72782754      -0.00000000      -0.00000000      -0.00000000
Cu       1.85902976       3.71805952       5.59174131       0.00000000       0.00000000      -0.00000000
Cu       0.00000000       5.57708928       5.59174131       0.00000000       0.00000000       0.00000000
Cu       5.57708928       5.57708928       0.00000000       0.00000000      -0.00000000       0.00000000
Cu       3.71805952       5.57708928       1.86391377      -0.00000000       0.00000000      -0.00000000
Cu       5.57708928       3.71805952       1.86391377       0.00000000       0.00000000       0.00000000
Cu       3.71805952       3.71805952       3.72782754       0.00000000      -0.00000000       0.00000000
Cu       5.57708928       3.71805952       5.59174131       0.00000000       0.00000000      -0.00000000
Cu       3.71805952       5.57708928       5.59174131      -0.00000000      -0.00000000      -0.00000000
Cu       1.85902976       1.85902976       7.45565508       0.00000000       0.00000000       0.00000000
Cu       0.00000000       1.85902976       9.31956885      -0.00000000      -0.00000000      -0.00000000
Cu       1.85902976       0.00000000       9.31956885       0.00000000      -0.00000000      -0.00000000
Cu       0.00000000       0.00000000      11.18348262       0.00000000      -0.00000000      -0.00000000
Cu       1.85902976       0.00000000      13.04739639      -0.00000000      -0.00000000       0.00000000
Cu       0.00000000       1.85902976      13.04739639      -0.00000000       0.00000000      -0.00000000
Cu       5.57708928       1.85902976       7.45565508      -0.00000000      -0.00000000      -0.00000000
Cu       3.71805952       1.85902976       9.31956885       0.00000000       0.00000000      -0.00000000
Cu       5.57708928       0.00000000       9.31956885       0.00000000      -0.00000000       0.00000000
Cu       3.71805952       0.00000000      11.18348262      -0.00000000       0.00000000       0.00000000
Cu       5.57708928       0.00000000      13.04739639      -0.00000000       0.00000000       0.00000000
Cu       3.71805952       1.85902976      13.04739639       0.00000000       0.00000000       0.00000000
Cu       1.85902976       5.57708928       7.45565508       0.00000000       0.00000000      -0.00000000
Cu       0.00000000       5.57708928       9.31956885      -0.00000000       0.00000000      -0.00000000
Cu       1.85902976       3.71805952       9.31956885      -0.00000000       0.00000000       0.00000000
Cu       0.00000000       3.71805952      11.18348262       0.00000000      -0.00000000       0.00000000
Cu       1.85902976       3.71805952      13.04739639      -0.00000000       0.00000000      -0.00000000
Cu       0.00000000       5.57708928      13.04739639       0.00000000       0.00000000      -0.00000000
Cu       5.57708928       5.57708928       7.45565508       0.00000000      -0.00000000       0.00000000
Cu       3.71805952       5.57708928       9.31956885      -0.00000000       0.00000000       0.00000000
Cu       5.57708928       3.71805952       9.31956885      -0.00000000      -0.00000000      -0.00000000
Cu       3.71805952       3.71805952      11.18348262      -0.00000000      -0.00000000      -0.00000000
Cu       5.57708928       3.71805952      13.04739639       0.00000000      -0.00000000      -0.00000000
Cu       3.71805952       5.57708928      13.04739639       0.00000000      -0.00000000       0.00000000
64
Lattice="7.55128153 0.0 0.0 0.0 7.55128153 0.0 0.0 0.0 15.12378433" Properties=species:S:1:pos:R:3:forces:R:3 energy=-207.65439894 stress="0.0070354317705445335 -0.0 -0.0 -0.0 0.0070354317705445335 -0.0 -0.0 -0.0 0.010095683734246137" free_energy=-207.65324774 pbc="T T T"
Mg       0.00000000       0.00000000       0.00000000       0.00000000      -0.00000000      -0.00000000
Mg       1.88782038       1.88782038       3.78094608      -0.00000000       0.00000000      -0.00000000
Mg       3.77564076       0.00000000       0.00000000       0.00000000      -0.00000000      -0.00000000
Mg       5.66346115       1.88782038       3.78094608       0.00000000       0.00000000      -0.00000000
Mg       0.00000000       3.77564076       0.00000000      -0.00000000       0.00000000      -0.00000000
Mg       1.88782038       5.66346115       3.78094608       0.00000000      -0.00000000      -0.00000000
Mg       3.77564076       3.77564076       0.00000000      -0.00000000      -0.00000000      -0.00000000
Mg       5.66346115       5.66346115       3.78094608       0.00000000      -0.00000000      -0.00000000
Mg       0.00000000       0.00000000       7.56189216       0.00000000       0.00000000       0.00000000
Mg       1.88782038       1.88782038      11.34283825       0.00000000       0.00000000      -0.00000000
Mg       3.77564076       0.00000000       7.56189216      -0.00000000       0.00000000      -0.00000000
Mg       5.66346115       1.88782038      11.34283825      -0.00000000       0.00000000       0.00000000
Mg       0.00000000       3.77564076       7.56189216      -0.00000000      -0.00000000       0.00000000
Mg       1.88782038       5.66346115      11.34283825       0.00000000      -0.00000000       0.00000000
Mg       3.77564076       3.77564076       7.56189216      -0.00000000      -0.00000000       0.00000000
Mg       5.66346115       5.66346115      11.34283825       0.00000000      -0.00000000      -0.00000000
Cu       1.88782038       1.88782038       0.00000000      -0.00000000       0.00000000       0.00000000
Cu       0.00000000       1.88782038       1.89047304      -0.00000000      -0.00000000      -0.00000000
Cu       1.88782038       0.00000000       1.89047304       0.00000000      -0.00000000      -0.00000000
Cu       0.00000000       0.00000000       3.78094608      -0.00000000      -0.00000000       0.00000000
Cu       1.88782038       0.00000000       5.67141912       0.00000000       0.00000000       0.00000000
Cu       0.00000000       1.88782038       5.67141912       0.00000000      -0.00000000      -0.00000000
Cu       5.66346115       1.88782038       0.00000000       0.00000000       0.00000000       0.00000000
Cu       3.77564076       1.88782038       1.89047304       0.00000000      -0.00000000       0.00000000
Cu       5.66346115       0.00000000       1.89047304      -0.00000000       0.00000000       0.00000000
Cu       3.77564076       0.00000000       3.78094608      -0.00000000      -0.00000000      -0.00000000
Cu       5.66346115       0.00000000       5.67141912       0.00000000       0.00000000       0.00000000
Cu       3.77564076       1.88782038       5.67141912       0.00000000       0.00000000       0.00000000
Cu       1.88782038       5.66346115       0.00000000       0.00000000      -0.00000000       0.00000000
Cu       0.00000000       5.66346115       1.89047304       0.00000000      -0.00000000       0.00000000
Cu       1.88782038       3.77564076       1.89047304       0.00000000      -0.00000000      -0.00000000
Cu       0.00000000       3.77564076       3.78094608      -0.00000000      -0.00000000      -0.00000000
Cu       1.88782038       3.77564076       5.67141912      -0.00000000      -0.00000000      -0.00000000
Cu       0.00000000       5.66346115       5.67141912       0.00000000       0.00000000      -0.00000000
Cu       5.66346115       5.66346115       0.00000000       0.00000000      -0.00000000      -0.00000000
Cu       3.77564076       5.66346115       1.89047304      -0.00000000      -0.00000000       0.00000000
Cu       5.66346115       3.77564076       1.89047304       0.00000000       0.00000000      -0.00000000
Cu       3.77564076       3.77564076       3.78094608      -0.00000000      -0.00000000      -0.00000000
Cu       5.66346115       3.77564076       5.67141912      -0.00000000       0.00000000       0.00000000
Cu       3.77564076       5.66346115       5.67141912      -0.00000000       0.00000000       0.00000000
Cu       1.88782038       1.88782038       7.56189216      -0.00000000       0.00000000       0.00000000
Cu       0.00000000       1.88782038       9.45236521      -0.00000000      -0.00000000       0.00000000
Cu       1.88782038       0.00000000       9.45236521      -0.00000000      -0.00000000      -0.00000000
Cu       0.00000000       0.00000000      11.34283825       0.00000000      -0.00000000      -0.00000000
Cu       1.88782038       0.00000000      13.23331129      -0.00000000      -0.00000000      -0.00000000
Cu       0.00000000       1.88782038      13.23331129       0.00000000      -0.00000000      -0.00000000
Cu       5.66346115       1.88782038       7.56189216      -0.00000000       0.00000000       0.00000000
Cu       3.77564076       1.88782038       9.45236521      -0.00000000       0.00000000       0.00000000
Cu       5.66346115       0.00000000       9.45236521       0.00000000       0.00000000      -0.00000000
Cu       3.77564076       0.00000000      11.34283825      -0.00000000       0.00000000       0.00000000
Cu       5.66346115       0.00000000      13.23331129       0.00000000       0.00000000      -0.00000000
Cu       3.77564076       1.88782038      13.23331129       0.00000000      -0.00000000      -0.00000000
Cu       1.88782038       5.66346115       7.56189216      -0.00000000      -0.00000000       0.00000000
Cu       0.00000000       5.66346115       9.45236521      -0.00000000       0.00000000       0.00000000
Cu       1.88782038       3.77564076       9.45236521      -0.00000000      -0.00000000       0.00000000
Cu       0.00000000       3.77564076      11.34283825       0.00000000       0.00000000       0.00000000
Cu       1.88782038       3.77564076      13.23331129       0.00000000       0.00000000      -0.00000000
Cu       0.00000000       5.66346115      13.23331129      -0.00000000      -0.00000000       0.00000000
Cu       5.66346115       5.66346115       7.56189216      -0.00000000       0.00000000       0.00000000
Cu       3.77564076       5.66346115       9.45236521      -0.00000000       0.00000000      -0.00000000
Cu       5.66346115       3.77564076       9.45236521       0.00000000       0.00000000       0.00000000
Cu       3.77564076       3.77564076      11.34283825       0.00000000      -0.00000000      -0.00000000
Cu       5.66346115       3.77564076      13.23331129       0.00000000       0.00000000      -0.00000000
Cu       3.77564076       5.66346115      13.23331129       0.00000000       0.00000000      -0.00000000
64
Lattice="7.52160887 0.0 0.0 0.0 7.52160887 0.0 0.0 0.0 15.06903843" Properties=species:S:1:pos:R:3:forces:R:3 energy=-207.69369179 stress="-0.000731412108244889 -0.0 -0.0 -0.0 -0.000731412108244889 -0.0 -0.0 -0.0 0.001864001309985911" free_energy=-207.69242691 pbc="T T T"
Mg       0.00000000       0.00000000       0.00000000       0.00000000      -0.00000000      -0.00000000
Mg       1.88040222       1.88040222       3.76725961       0.00000000      -0.00000000       0.00000000
Mg       3.76080443       0.00000000       0.00000000       0.00000000      -0.00000000       0.00000000
Mg       5.64120665       1.88040222       3.76725961       0.00000000      -0.00000000       0.00000000
Mg       0.00000000       3.76080443       0.00000000      -0.00000000      -0.00000000       0.00000000
Mg       1.88040222       5.64120665       3.76725961      -0.00000000      -0.00000000       0.00000000
Mg       3.76080443       3.76080443       0.00000000       0.00000000      -0.00000000      -0.00000000
Mg       5.64120665       5.64120665       3.76725961       0.00000000       0.00000000       0.00000000
Mg       0.00000000       0.00000000       7.53451922      -0.00000000       0.00000000      -0.00000000
Mg       1.88040222       1.88040222      11.30177882       0.00000000      -0.00000000      -0.00000000
Mg       3.76080443       0.00000000       7.53451922      -0.00000000      -0.00000000       0.00000000
Mg       5.64120665       1.88040222      11.30177882       0.00000000      -0.00000000       0.00000000
Mg       0.00000000       3.76080443       7.53451922       0.00000000      -0.00000000       0.00000000
Mg       1.88040222       5.64120665      11.30177882       0.00000000      -0.00000000       0.00000000
Mg       3.76080443       3.76080443       7.53451922       0.00000000       0.00000000       0.00000000
Mg       5.64120665       5.64120665      11.30177882       0.00000000      -0.00000000       0.00000000
Cu       1.88040222       1.88040222       0.00000000      -0.00000000       0.00000000       0.00000000
Cu       0.00000000       1.88040222       1.88362980       0.00000000       0.00000000       0.00000000
Cu       1.88040222       0.00000000       1.88362980      -0.00000000       0.00000000      -0.00000000
Cu       0.00000000       0.00000000       3.76725961      -0.00000000      -0.00000000       0.00000000
Cu       1.88040222       0.00000000       5.65088941      -0.00000000       0.00000000      -0.00000000
Cu       0.00000000       1.88040222       5.65088941       0.00000000       0.00000000      -0.00000000
Cu       5.64120665       1.88040222       0.00000000      -0.00000000      -0.00000000       0.00000000
Cu       3.76080443       1.88040222       1.88362980      -0.00000000       0.00000000       0.00000000
Cu       5.64120665       0.00000000       1.88362980       0.00000000      -0.00000000       0.00000000
Cu       3.76080443       0.00000000       3.76725961      -0.00000000      -0.00000000       0.00000000
Cu       5.64120665       0.00000000       5.65088941       0.00000000      -0.00000000       0.00000000
Cu       3.76080443       1.88040222       5.65088941       0.00000000      -0.00000000       0.00000000
Cu       1.88040222       5.64120665       0.00000000       0.00000000      -0.00000000      -0.00000000
Cu       0.00000000       5.64120665       1.88362980      -0.00000000       0.00000000       0.00000000
Cu       1.88040222       3.76080443       1.88362980      -0.00000000       0.00000000       0.00000000
Cu       0.00000000       3.76080443       3.76725961      -0.00000000       0.00000000      -0.00000000
Cu       1.88040222       3.76080443       5.65088941      -0.00000000       0.00000000       0.00000000
Cu       0.00000000       5.64120665       5.65088941       0.00000000      -0.00000000      -0.00000000
Cu       5.64120665       5.64120665       0.00000000       0.00000000       0.00000000       0.00000000
Cu       3.76080443       5.64120665       1.88362980       0.00000000      -0.00000000      -0.00000000
Cu       5.64120665       3.76080443       1.88362980      -0.00000000       0.00000000      -0.00000000
Cu       3.76080443       3.76080443       3.76725961       0.00000000       0.00000000      -0.00000000
Cu       5.64120665       3.76080443       5.65088941       0.00000000      -0.00000000       0.00000000
Cu       3.76080443       5.64120665       5.65088941       0.00000000       0.00000000      -0.00000000
Cu       1.88040222       1.88040222       7.53451922      -0.00000000       0.00000000      -0.00000000
Cu       0.00000000       1.88040222       9.41814902      -0.00000000      -0.00000000       0.00000000
Cu       1.88040222       0.00000000       9.41814902       0.00000000      -0.00000000      -0.00000000
Cu       0.00000000       0.00000000      11.30177882       0.00000000      -0.00000000      -0.00000000
Cu       1.88040222       0.00000000      13.18540863      -0.00000000      -0.00000000       0.00000000
Cu       0.00000000       1.88040222      13.18540863       0.00000000       0.00000000       0.00000000
Cu       5.64120665       1.88040222       7.53451922       0.00000000      -0.00000000       0.00000000
Cu       3.76080443       1.88040222       9.41814902       0.00000000      -0.00000000       0.00000000
Cu       5.64120665       0.00000000       9.41814902       0.00000000       0.00000000      -0.00000000
Cu       3.76080443       0.00000000      11.30177882       0.00000000      -0.00000000      -0.00000000
Cu       5.64120665       0.00000000      13.18540863      -0.00000000       0.00000000       0.00000000
Cu       3.76080443       1.88040222      13.18540863       0.00000000      -0.00000000      -0.00000000
Cu       1.88040222       5.64120665       7.53451922      -0.00000000      -0.00000000       0.00000000
Cu       0.00000000       5.64120665       9.41814902      -0.00000000      -0.00000000      -0.00000000
Cu       1.88040222       3.76080443       9.41814902      -0.00000000      -0.00000000      -0.00000000
Cu       0.00000000       3.76080443      11.30177882      -0.00000000       0.00000000      -0.00000000
Cu       1.88040222       3.76080443      13.18540863      -0.00000000       0.00000000      -0.00000000
Cu       0.00000000       5.64120665      13.18540863      -0.00000000       0.00000000      -0.00000000
Cu       5.64120665       5.64120665       7.53451922       0.00000000      -0.00000000      -0.00000000
Cu       3.76080443       5.64120665       9.41814902       0.00000000       0.00000000       0.00000000
Cu       5.64120665       3.76080443       9.41814902       0.00000000      -0.00000000      -0.00000000
Cu       3.76080443       3.76080443      11.30177882       0.00000000       0.00000000       0.00000000
Cu       5.64120665       3.76080443      13.18540863       0.00000000      -0.00000000       0.00000000
Cu       3.76080443       5.64120665      13.18540863       0.00000000       0.00000000       0.00000000
64
Lattice="7.52129572 0.0 0.0 0.0 7.52129572 0.0 0.0 0.0 15.06846067" Properties=species:S:1:pos:R:3:forces:R:3 energy=-207.69369313 stress="-0.000412901880736269 -0.0 -0.0 -0.0 -0.000412901880736269 0.0 -0.0 0.0 0.0021827653796706805" free_energy=-207.69242643 pbc="T T T"
Mg       0.00000000       0.00000000       0.00000000       0.00000000      -0.00000000       0.00000000
Mg       1.88032393       1.88032393       3.76711517      -0.00000000       0.00000000       0.00000000
Mg       3.76064786       0.00000000       0.00000000      -0.00000000       0.00000000       0.00000000
Mg       5.64097179       1.88032393       3.76711517       0.00000000       0.00000000       0.00000000
Mg       0.00000000       3.76064786       0.00000000      -0.00000000      -0.00000000       0.00000000
Mg       1.88032393       5.64097179       3.76711517      -0.00000000      -0.00000000       0.00000000
Mg       3.76064786       3.76064786       0.00000000       0.00000000      -0.00000000       0.00000000
Mg       5.64097179       5.64097179       3.76711517      -0.00000000       0.00000000      -0.00000000
Mg       0.00000000       0.00000000       7.53423034      -0.00000000       0.00000000      -0.00000000
Mg       1.88032393       1.88032393      11.30134550       0.00000000      -0.00000000       0.00000000
Mg       3.76064786       0.00000000       7.53423034       0.00000000      -0.00000000      -0.00000000
Mg       5.64097179       1.88032393      11.30134550       0.00000000      -0.00000000       0.00000000
Mg       0.00000000       3.76064786       7.53423034      -0.00000000      -0.00000000      -0.00000000
Mg       1.88032393       5.64097179      11.30134550      -0.00000000      -0.00000000       0.00000000
Mg       3.76064786       3.76064786       7.53423034      -0.00000000       0.00000000      -0.00000000
Mg       5.64097179       5.64097179      11.30134550       0.00000000       0.00000000       0.00000000
Cu       1.88032393       1.88032393       0.00000000      -0.00000000      -0.00000000       0.00000000
Cu       0.00000000       1.88032393       1.88355758       0.00000000      -0.00000000      -0.00000000
Cu       1.88032393       0.00000000       1.88355758       0.00000000       0.00000000       0.00000000
Cu       0.00000000       0.00000000       3.76711517      -0.00000000      -0.00000000       0.00000000
Cu       1.88032393       0.00000000       5.65067275       0.00000000       0.00000000      -0.00000000
Cu       0.00000000       1.88032393       5.65067275       0.00000000      -0.00000000       0.00000000
Cu       5.64097179       1.88032393       0.00000000       0.00000000      -0.00000000      -0.00000000
Cu       3.76064786       1.88032393       1.88355758      -0.00000000      -0.00000000      -0.00000000
Cu       5.64097179       0.00000000       1.88355758      -0.00000000      -0.00000000      -0.00000000
Cu       3.76064786       0.00000000       3.76711517      -0.00000000      -0.00000000       0.00000000
Cu       5.64097179       0.00000000       5.65067275       0.00000000      -0.00000000      -0.00000000
Cu       3.76064786       1.88032393       5.65067275       0.00000000      -0.00000000       0.00000000
Cu       1.88032393       5.64097179       0.00000000      -0.00000000       0.00000000       0.00000000
Cu       0.00000000       5.64097179       1.88355758       0.00000000      -0.00000000      -0.00000000
Cu       1.88032393       3.76064786       1.88355758      -0.00000000      -0.00000000      -0.00000000
Cu       0.00000000       3.76064786       3.76711517      -0.00000000       0.00000000      -0.00000000
Cu       1.88032393       3.76064786       5.65067275      -0.00000000      -0.00000000      -0.00000000
Cu       0.00000000       5.64097179       5.65067275      -0.00000000      -0.00000000       0.00000000
Cu       5.64097179       5.64097179       0.00000000       0.00000000       0.00000000       0.00000000
Cu       3.76064786       5.64097179       1.88355758      -0.00000000      -0.00000000       0.00000000
Cu       5.64097179       3.76064786       1.88355758       0.00000000      -0.00000000      -0.00000000
Cu       3.76064786       3.76064786       3.76711517      -0.00000000       0.00000000       0.00000000
Cu       5.64097179       3.76064786       5.65067275       0.00000000      -0.00000000      -0.00000000
Cu       3.76064786       5.64097179       5.65067275      -0.00000000       0.00000000      -0.00000000
Cu       1.88032393       1.88032393       7.53423034       0.00000000       0.00000000      -0.00000000
Cu       0.00000000       1.88032393       9.41778792       0.00000000      -0.00000000       0.00000000
Cu       1.88032393       0.00000000       9.41778792      -0.00000000       0.00000000       0.00000000
Cu       0.00000000       0.00000000      11.30134550       0.00000000       0.00000000       0.00000000
Cu       1.88032393       0.00000000      13.18490309       0.00000000       0.00000000      -0.00000000
Cu       0.00000000       1.88032393      13.18490309       0.00000000      -0.00000000       0.00000000
Cu       5.64097179       1.88032393       7.53423034       0.00000000       0.00000000       0.00000000
Cu       3.76064786       1.88032393       9.41778792      -0.00000000      -0.00000000      -0.00000000
Cu       5.64097179       0.00000000       9.41778792      -0.00000000       0.00000000      -0.00000000
Cu       3.76064786       0.00000000      11.30134550      -0.00000000       0.00000000       0.00000000
Cu       5.64097179       0.00000000      13.18490309      -0.00000000       0.00000000       0.00000000
Cu       3.76064786       1.88032393      13.18490309      -0.00000000       0.00000000      -0.00000000
Cu       1.88032393       5.64097179       7.53423034       0.00000000      -0.00000000      -0.00000000
Cu       0.00000000       5.64097179       9.41778792       0.00000000      -0.00000000       0.00000000
Cu       1.88032393       3.76064786       9.41778792       0.00000000       0.00000000      -0.00000000
Cu       0.00000000       3.76064786      11.30134550       0.00000000       0.00000000       0.00000000
Cu       1.88032393       3.76064786      13.18490309      -0.00000000      -0.00000000       0.00000000
Cu       0.00000000       5.64097179      13.18490309       0.00000000      -0.00000000      -0.00000000
Cu       5.64097179       5.64097179       7.53423034       0.00000000       0.00000000      -0.00000000
Cu       3.76064786       5.64097179       9.41778792       0.00000000       0.00000000       0.00000000
Cu       5.64097179       3.76064786       9.41778792       0.00000000      -0.00000000       0.00000000
Cu       3.76064786       3.76064786      11.30134550      -0.00000000       0.00000000      -0.00000000
Cu       5.64097179       3.76064786      13.18490309      -0.00000000      -0.00000000      -0.00000000
Cu       3.76064786       5.64097179      13.18490309       0.00000000       0.00000000      -0.00000000
64
Lattice="7.47870738 0.0 0.0 0.0 7.47870738 0.0 0.0 0.0 14.98988542" Properties=species:S:1:pos:R:3:forces:R:3 energy=-207.6130716 stress="-0.012047976009262712 -0.0 -0.0 -0.0 -0.012047976009262712 -0.0 -0.0 -0.0 -0.009893427687195472" free_energy=-207.61168213 pbc="T T T"
Mg       0.00000000       0.00000000       0.00000000       0.00000000      -0.00000000      -0.00000000
Mg       1.86967685       1.86967685       3.74747136      -0.00000000      -0.00000000      -0.00000000
Mg       3.73935369       0.00000000       0.00000000       0.00000000       0.00000000       0.00000000
Mg       5.60903054       1.86967685       3.74747136       0.00000000       0.00000000      -0.00000000
Mg       0.00000000       3.73935369       0.00000000      -0.00000000      -0.00000000       0.00000000
Mg       1.86967685       5.60903054       3.74747136       0.00000000      -0.00000000      -0.00000000
Mg       3.73935369       3.73935369       0.00000000      -0.00000000      -0.00000000       0.00000000
Mg       5.60903054       5.60903054       3.74747136       0.00000000       0.00000000      -0.00000000
Mg       0.00000000       0.00000000       7.49494271      -0.00000000       0.00000000      -0.00000000
Mg       1.86967685       1.86967685      11.24241407      -0.00000000      -0.00000000       0.00000000
Mg       3.73935369       0.00000000       7.49494271      -0.00000000       0.00000000      -0.00000000
Mg       5.60903054       1.86967685      11.24241407      -0.00000000       0.00000000       0.00000000
Mg       0.00000000       3.73935369       7.49494271       0.00000000      -0.00000000      -0.00000000
Mg       1.86967685       5.60903054      11.24241407       0.00000000       0.00000000       0.00000000
Mg       3.73935369       3.73935369       7.49494271       0.00000000      -0.00000000      -0.00000000
Mg       5.60903054       5.60903054      11.24241407      -0.00000000      -0.00000000       0.00000000