120
Lattice="15.784065 0.0 0.0 -6.313626 10.93552101 0.0 0.0 0.0 15.3984" Properties=species:S:1:pos:R:3:forces:R:3 energy=-180.19474651 stress="-0.007030550579608109 4.9535350204006676e-05 -1.8487350030866213e-08 4.9535350204006676e-05 -0.004516003114804657 2.9403749492036032e-08 -1.8487350030866213e-08 2.9403749492036032e-08 -0.0036648201975810536" free_energy=-180.19702973 pbc="T T T"
Mg       0.00000000       0.00000000       0.00000000      -0.00004726      -0.00183432       0.00000447
Mg       0.00000003       1.82258687       2.56640005      -0.00066283      -0.00051185      -0.00000434
Mg       3.15681300       0.00000000       0.00000000       0.00080090       0.00165919       0.00000404
Mg       3.15681303       1.82258687       2.56640005       0.00221092       0.00513739      -0.00000253
Mg       6.31362600       0.00000000       0.00000000       0.00452727      -0.00717963       0.00000227
Mg       6.31362603       1.82258687       2.56640005       0.00116622       0.00318371      -0.00000145
Mg       9.47043900       0.00000000       0.00000000      -0.00490110       0.00366633       0.00000227
Mg       9.47043903       1.82258687       2.56640005       0.00112125       0.00717583      -0.00000216
Mg      12.62725200       0.00000000       0.00000000      -0.00126399      -0.00508151       0.00000419
Mg      12.62725203       1.82258687       2.56640005       0.00375346       0.00055215      -0.00000152
Mg      -1.57840650       2.73388025       0.00000000      -0.00004720      -0.00183634       0.00000389
Mg      -1.57840647       4.55646712       2.56640005      -0.00066146      -0.00051351      -0.00000312
Mg       1.57840650       2.73388025       0.00000000       0.00080135       0.00166148       0.00000326
Mg       1.57840653       4.55646712       2.56640005       0.00221199       0.00513872      -0.00000304
Mg       4.73521950       2.73388025       0.00000000       0.00452705      -0.00718102       0.00000194
Mg       4.73521953       4.55646712       2.56640005       0.00116828       0.00318434      -0.00000222
Mg       7.89203250       2.73388025       0.00000000      -0.00490256       0.00366659       0.00000246
Mg       7.89203253       4.55646712       2.56640005       0.00111865       0.00717760      -0.00000244
Mg      11.04884550       2.73388025       0.00000000      -0.00126330      -0.00508181       0.00000432
Mg      11.04884553       4.55646712       2.56640005       0.00375356       0.00055159      -0.00000271
Mg      -3.15681300       5.46776051       0.00000000      -0.00004743      -0.00183445       0.00000344
Mg      -3.15681297       7.29034738       2.56640005      -0.00066189      -0.00051196      -0.00000386
Mg       0.00000000       5.46776051       0.00000000       0.00080102       0.00165876       0.00000345
Mg       0.00000003       7.29034738       2.56640005       0.00221147       0.00513697      -0.00000153
Mg       3.15681300       5.46776051       0.00000000       0.00452864      -0.00718100       0.00000141
Mg       3.15681303       7.29034738       2.56640005       0.00116716       0.00318254      -0.00000255
Mg       6.31362600       5.46776051       0.00000000      -0.00490264       0.00366579       0.00000195
Mg       6.31362603       7.29034738       2.56640005       0.00111941       0.00717579      -0.00000196
Mg       9.47043900       5.46776051       0.00000000      -0.00126261      -0.00508149       0.00000396
Mg       9.47043903       7.29034738       2.56640005       0.00375288       0.00055159      -0.00000167
Mg      -4.73521950       8.20164076       0.00000000      -0.00004998      -0.00183482       0.00000223
Mg      -4.73521947      10.02422763       2.56640005      -0.00066067      -0.00051393      -0.00000369
Mg      -1.57840650       8.20164076       0.00000000       0.00080149       0.00165912       0.00000328
Mg      -1.57840647      10.02422763       2.56640005       0.00221233       0.00513796      -0.00000267
Mg       1.57840650       8.20164076       0.00000000       0.00452844      -0.00718161       0.00000190
Mg       1.57840653      10.02422763       2.56640005       0.00116633       0.00318323      -0.00000197
Mg       4.73521950       8.20164076       0.00000000      -0.00490236       0.00366597       0.00000133
Mg       4.73521953      10.02422763       2.56640005       0.00112134       0.00717698      -0.00000277
Mg       7.89203250       8.20164076       0.00000000      -0.00126339      -0.00508015       0.00000355
Mg       7.89203253      10.02422763       2.56640005       0.00375293       0.00055191      -0.00000263
Mg       0.00000000       0.00000000       5.13279995      -0.00004942      -0.00183480      -0.00000710
Mg       0.00000003       1.82258687       7.69920000      -0.00066116      -0.00051275      -0.00000312
Mg       3.15681300       0.00000000       5.13279995       0.00080164       0.00166015      -0.00000765
Mg       3.15681303       1.82258687       7.69920000       0.00221352       0.00513944      -0.00000304
Mg       6.31362600       0.00000000       5.13279995       0.00452818      -0.00717879      -0.00000640
Mg       6.31362603       1.82258687       7.69920000       0.00116678       0.00318504      -0.00000349
Mg       9.47043900       0.00000000       5.13279995      -0.00490186       0.00366492      -0.00000625
Mg       9.47043903       1.82258687       7.69920000       0.00111885       0.00717640      -0.00000404
Mg      12.62725200       0.00000000       5.13279995      -0.00126280      -0.00508201      -0.00000726
Mg      12.62725203       1.82258687       7.69920000       0.00375342       0.00055246      -0.00000187
Mg      -1.57840650       2.73388025       5.13279995      -0.00004965      -0.00183482      -0.00000698
Mg      -1.57840647       4.55646712       7.69920000      -0.00066100      -0.00051360      -0.00000330
Mg       1.57840650       2.73388025       5.13279995       0.00080249       0.00166050      -0.00000789
Mg       1.57840653       4.55646712       7.69920000       0.00221369       0.00513782      -0.00000235
Mg       4.73521950       2.73388025       5.13279995       0.00452871      -0.00717901      -0.00000614
Mg       4.73521953       4.55646712       7.69920000       0.00116747       0.00318302      -0.00000280
Mg       7.89203250       2.73388025       5.13279995      -0.00490378       0.00366564      -0.00000503
Mg       7.89203253       4.55646712       7.69920000       0.00111835       0.00717671      -0.00000457
Mg      11.04884550       2.73388025       5.13279995      -0.00126338      -0.00508161      -0.00000746
Mg      11.04884553       4.55646712       7.69920000       0.00375322       0.00055195      -0.00000202
Mg      -3.15681300       5.46776051       5.13279995      -0.00004941      -0.00183514      -0.00000776
Mg      -3.15681297       7.29034738       7.69920000      -0.00066242      -0.00051402      -0.00000424
Mg       0.00000000       5.46776051       5.13279995       0.00080202       0.00166019      -0.00000796
Mg       0.00000003       7.29034738       7.69920000       0.00221493       0.00513675      -0.00000371
Mg       3.15681300       5.46776051       5.13279995       0.00452869      -0.00718082      -0.00000638
Mg       3.15681303       7.29034738       7.69920000       0.00116832       0.00318358      -0.00000551
Mg       6.31362600       5.46776051       5.13279995      -0.00490263       0.00366666      -0.00000696
Mg       6.31362603       7.29034738       7.69920000       0.00111914       0.00717531      -0.00000476
Mg       9.47043900       5.46776051       5.13279995      -0.00126296      -0.00508110      -0.00000740
Mg       9.47043903       7.29034738       7.69920000       0.00375256       0.00055086      -0.00000369
Mg      -4.73521950       8.20164076       5.13279995      -0.00004821      -0.00183528      -0.00000659
Mg      -4.73521947      10.02422763       7.69920000      -0.00066133      -0.00051342      -0.00000260
Mg      -1.57840650       8.20164076       5.13279995       0.00080207       0.00166025      -0.00000899
Mg      -1.57840647      10.02422763       7.69920000       0.00221285       0.00513895      -0.00000463
Mg       1.57840650       8.20164076       5.13279995       0.00452794      -0.00718119      -0.00000756
Mg       1.57840653      10.02422763       7.69920000       0.00116722       0.00318407      -0.00000373
Mg       4.73521950       8.20164076       5.13279995      -0.00490228       0.00366645      -0.00000670
Mg       4.73521953      10.02422763       7.69920000       0.00111970       0.00717566      -0.00000282
Mg       7.89203250       8.20164076       5.13279995      -0.00126414      -0.00508160      -0.00000702
Mg       7.89203253      10.02422763       7.69920000       0.00375312       0.00055206      -0.00000259
Mg       0.00000000       0.00000000      10.26560005      -0.00004971      -0.00183606       0.00000355
Mg       0.00000003       1.82258687      12.83199995      -0.00066073      -0.00051290       0.00000709
Mg       3.15681300       0.00000000      10.26560005       0.00080174       0.00166130       0.00000437
Mg       3.15681303       1.82258687      12.83199995       0.00221295       0.00513786       0.00000729
Mg       6.31362600       0.00000000      10.26560005       0.00452850      -0.00717933       0.00000442
Mg       6.31362603       1.82258687      12.83199995       0.00116646       0.00318297       0.00000662
Mg       9.47043900       0.00000000      10.26560005      -0.00490309       0.00366491       0.00000313
Mg       9.47043903       1.82258687      12.83199995       0.00111927       0.00717625       0.00000618
Mg      12.62725200       0.00000000      10.26560005      -0.00126398      -0.00508038       0.00000233
Mg      12.62725203       1.82258687      12.83199995       0.00375524       0.00055131       0.00000803
Mg      -1.57840650       2.73388025      10.26560005      -0.00004772      -0.00183595       0.00000309
Mg      -1.57840647       4.55646712      12.83199995      -0.00066085      -0.00051242       0.00000669
Mg       1.57840650       2.73388025      10.26560005       0.00080249       0.00166057       0.00000376
Mg       1.57840653       4.55646712      12.83199995       0.00221286       0.00513723       0.00000785
Mg       4.73521950       2.73388025      10.26560005       0.00452844      -0.00717977       0.00000383
Mg       4.73521953       4.55646712      12.83199995       0.00116770       0.00318392       0.00000561
Mg       7.89203250       2.73388025      10.26560005      -0.00490303       0.00366524       0.00000310
Mg       7.89203253       4.55646712      12.83199995       0.00111788       0.00717680       0.00000728
Mg      11.04884550       2.73388025      10.26560005      -0.00126339      -0.00508167       0.00000312
Mg      11.04884553       4.55646712      12.83199995       0.00375406       0.00055175       0.00000807
Mg      -3.15681300       5.46776051      10.26560005      -0.00004835      -0.00183537       0.00000223
Mg      -3.15681297       7.29034738      12.83199995      -0.00066153      -0.00051182       0.00000732
Mg       0.00000000       5.46776051      10.26560005       0.00080168       0.00165880       0.00000287
Mg       0.00000003       7.29034738      12.83199995       0.00221297       0.00513891       0.00000751
Mg       3.15681300       5.46776051      10.26560005       0.00452809      -0.00718176       0.00000442
Mg       3.15681303       7.29034738      12.83199995       0.00116755       0.00318448       0.00000654
Mg       6.31362600       5.46776051      10.26560005      -0.00490420       0.00366431       0.00000371
Mg       6.31362603       7.29034738      12.83199995       0.00111914       0.00717612       0.00000661
Mg       9.47043900       5.46776051      10.26560005      -0.00126551      -0.00508110       0.00000405
Mg       9.47043903       7.29034738      12.83199995       0.00375287       0.00055264       0.00000755
Mg      -4.73521950       8.20164076      10.26560005      -0.00004932      -0.00183491       0.00000378
Mg      -4.73521947      10.02422763      12.83199995      -0.00066171      -0.00051288       0.00000847
Mg      -1.57840650       8.20164076      10.26560005       0.00080073       0.00165943       0.00000378
Mg      -1.57840647      10.02422763      12.83199995       0.00221330       0.00513773       0.00000802
Mg       1.57840650       8.20164076      10.26560005       0.00452996      -0.00718098       0.00000416
Mg       1.57840653      10.02422763      12.83199995       0.00116659       0.00318397       0.00000674
Mg       4.73521950       8.20164076      10.26560005      -0.00490295       0.00366466       0.00000449
Mg       4.73521953      10.02422763      12.83199995       0.00111892       0.00717537       0.00000680
Mg       7.89203250       8.20164076      10.26560005      -0.00126425      -0.00508138       0.00000474
Mg       7.89203253      10.02422763      12.83199995       0.00375408       0.00055113       0.00000766
120
Lattice="15.784065 0.0 0.0 -6.313626 10.93552101 0.0 0.0 0.0 15.3984" Properties=species:S:1:pos:R:3:forces:R:3 energy=-180.17675161 stress="-0.0070824740123432975 9.627753145154372e-05 -7.947188739804635e-07 9.627753145154372e-05 -0.004571043544714294 -1.844890233465077e-06 -7.947188739804635e-07 -1.844890233465077e-06 -0.003659756692163062" free_energy=-180.179043 pbc="T T T"
Mg      15.77612072       0.00050249      15.39564384       0.02130666       0.01307429       0.01480871
Mg      -0.00077263       1.82610352       2.56851487      -0.00286576      -0.00802091      -0.01796856
Mg       3.15669244       0.00064487       0.00117967      -0.01149640       0.00128574       0.00034476
Mg       3.15322604       1.82416060       2.56644132       0.00953472      -0.01424946       0.01874770
Mg       6.30793095       0.00824046       0.00847097       0.02215397      -0.02555533      -0.02479854
Mg       6.31217282       1.81234871       2.56852395       0.00957084       0.02917498      -0.00155325
Mg       9.47639329       0.00746721      15.39575579      -0.02535385      -0.02183815       0.01054720
Mg       9.47542986       1.82220785       2.56592409      -0.01392595       0.00952010      -0.00141683
Mg       6.30945140      10.93374213       0.00830867       0.01000419       0.01784179      -0.02182425
Mg      12.62800967       1.83060316       2.57203879       0.00643645      -0.01932160      -0.02161714
Mg      -1.57670899       2.73934320       0.00106742       0.01448541      -0.02198968      -0.00216106
Mg      -1.57830371       4.56081891       2.56136878      -0.00566131      -0.01078636       0.01466323
Mg       1.59111779       2.73330822      15.39418407      -0.04218884      -0.00538341       0.00307593
Mg       1.57547600       4.55849851       2.55859568       0.01577166      -0.00429435       0.00412387
Mg       4.73075955       2.73766066       0.01591317       0.02609945      -0.00926765      -0.05783022
Mg       4.73803604       4.55201145       2.56423719      -0.00055025       0.02569270       0.00420425
Mg       7.88987321       2.73330319      15.39275602      -0.00530906       0.00569543       0.03695297
Mg       7.89088291       4.56225486       2.57564202      -0.00743037      -0.02032380      -0.03504226
Mg      11.05653130       2.73380305      15.39543658      -0.02023211       0.00108406       0.00555041
Mg      11.04425846       4.55750884       2.56424489       0.01117360      -0.00087821      -0.00300044
Mg      -3.15303183       5.46270458      15.39788123      -0.01958933       0.02431044      -0.01206572
Mg      -3.16103088       7.28628417       2.56979432       0.01119736       0.00954121      -0.02153387
Mg       0.00505469       5.46756859      15.39328958      -0.00615304       0.01019648       0.00784501
Mg      -0.00200647       7.28116843       2.56459582       0.00156848       0.02992402      -0.00682124
Mg       3.16431734       5.47105844       0.00056743      -0.00169802      -0.00307896       0.00453107
Mg       3.15313231       7.28923502       2.56905874       0.02040300       0.01014947      -0.00872170
Mg       6.31543653       5.47395285      15.38989208      -0.00537527      -0.01182635       0.02809517
Mg       6.31978059       7.29294587       2.56819473      -0.02275115      -0.00278898      -0.01694788
Mg       9.46501367       5.46064454      15.39814500       0.02295760       0.02027751       0.00158504
Mg       9.46979106       7.30057679       2.55895462      -0.00058912      -0.03409926       0.01352763
Mg      11.04352782       8.20132560      15.39803675       0.01925932      -0.01785790      -0.01305650
Mg      -4.73337109      10.02035525       2.55539189      -0.01332453       0.01941013       0.02781455
Mg      -1.57877654       8.20704684      15.38853440       0.00940310      -0.02600592       0.02441332
Mg      -1.58401695      10.01366151       2.56561304       0.00856031       0.01652348       0.00944324
Mg       1.58692816       8.20150352      15.39682998      -0.02306817       0.00862478       0.01538357
Mg       1.57017056      10.02503959       2.56523455       0.02864682      -0.00849828      -0.00403666
Mg       4.73915040       8.20706663      15.38882420      -0.00797802      -0.01301133       0.03417760
Mg       4.73796624      10.02026985       2.56723249      -0.01238438       0.01488646      -0.00594879
Mg       7.89313104       8.21259629      15.39227867      -0.00282564      -0.03241918       0.01099844
Mg       7.89585875      10.02399853       2.56070357      -0.00609278       0.01326055       0.02843528
Mg       0.00074851       0.00863709       5.13258529      -0.00977123      -0.03156245      -0.00683566
Mg       0.00513774       1.82849260       7.68996004      -0.03359081      -0.01888595       0.02205016
Mg      -3.16505092      10.92448718       5.13493925       0.02798544       0.03101667      -0.00656486
Mg       3.15400858       1.81976321       7.70480717       0.02105480       0.01369571      -0.03233838
Mg       0.00156070      10.93091803       5.13259392      -0.00659658       0.00410933       0.00124143
Mg       6.31798486       1.81898132       7.69754329      -0.01312884       0.02856695       0.01300018
Mg       3.15667865      10.93504619       5.13040303      -0.01090193       0.00498020       0.00641428
Mg       9.47191532       1.82228614       7.70696434      -0.01181852       0.01306593      -0.02911966
Mg      12.62562997       0.00723888       5.12695626       0.01042818      -0.03313152       0.01538695
Mg      12.62429366       1.82173357       7.69600945       0.02474068       0.00751264       0.02266226
Mg      14.19603612       2.73857258       5.13178750       0.02769462      -0.00067209       0.00263727
Mg      -1.57185848       4.56100296       7.69662724      -0.03592647      -0.01232608       0.00269067
Mg       1.57238649       2.74264310       5.12510906       0.02899571      -0.03458528       0.01230651
Mg       1.57410727       4.54951104       7.69057104       0.02568230       0.02816821       0.02175194
Mg       4.74625859       2.73242659       5.12924076      -0.04255972      -0.01593190       0.01980854
Mg       4.73546680       4.56284483       7.70375839       0.00450264      -0.01893455      -0.00586001
Mg       7.89037022       2.73433036       5.13327360       0.01239884      -0.00156758       0.00849843
Mg       7.89165173       4.55686288       7.71302376      -0.00642469      -0.00395946      -0.03565160
Mg      11.05690762       2.72676188       5.13553748      -0.03945345       0.01571347      -0.00904312
Mg      11.04489544       4.55658271       7.69493572       0.03179884       0.00438061       0.01181258
Mg      12.61872608       5.46745212       5.12935348       0.02971220      -0.00526365       0.01142967
Mg      -3.15248542       7.29173258       7.70082576      -0.02388210      -0.00008766      -0.00284987
Mg       0.00370222       5.46323856       5.13081663      -0.01709585       0.01706523      -0.00365201
Mg      -0.00255108       7.28637549       7.70733205       0.03022140       0.00898782      -0.03084096
Mg       3.15755529       5.45827427       5.13000037       0.00635029       0.02131010      -0.00038816
Mg       3.16596387       7.28521063       7.69711536      -0.02870582       0.02067502       0.00654576
Mg       6.30695998       5.46839848       5.12831871       0.01504196       0.00784384       0.03152122
Mg       6.32253645       7.30443780       7.69716603      -0.02629730      -0.04195849      -0.00535406
Mg       9.47288698       5.45666718       5.12903858      -0.02040348       0.02634199       0.01181117
Mg       9.47123591       7.28870060       7.69157009       0.01349747       0.00716609       0.03904292
Mg      11.04987841       8.19400503       5.12710177      -0.01163052       0.02154311       0.01336067
Mg      -4.73933264      10.03226141       7.69766093       0.00902016      -0.03376133       0.01130727
Mg      -1.57291286       8.19813920       5.13786633      -0.00869101      -0.00528418      -0.00655790
Mg      -1.56680341      10.02618203       7.70244552      -0.03956976      -0.00340461      -0.01184164
Mg       1.57724877       8.20025271       5.13430776       0.00697314      -0.01321358       0.00583245
Mg       1.57770360      10.02475702       7.70387819       0.01625940      -0.01048748      -0.01902183
Mg       4.73118535       8.20635353       5.13065588       0.00708243      -0.01187699       0.00925630
Mg       4.73103960      10.02926016       7.70475236       0.00796313      -0.00749643      -0.02032266
Mg       7.89033928       8.19981901       5.13843838       0.00963068       0.00996319      -0.02456803
Mg       7.88473597      10.01981416       7.70699944       0.02736366       0.02920654      -0.01075020
Mg      15.78244827       0.00192268      10.26936665       0.00171685      -0.01136577      -0.02303945
Mg      -0.00523008       1.80802743      12.83217179       0.01055959       0.06299954       0.00135830
Mg       3.16273490       0.00363901      10.26855162      -0.02119245      -0.02244280      -0.00322220
Mg       3.15384017       1.81565200      12.83129409      -0.00118537       0.03078625       0.00428475
Mg       0.00176166      10.93113696      10.26002044      -0.00249898       0.00349943       0.02994357
Mg       6.31474323       1.82104332      12.82655569      -0.02722761       0.00904665       0.02844989
Mg       9.47229148       0.01142314      10.26125077      -0.00555380      -0.05451789       0.02692600
Mg       9.46198837       1.82427783      12.83394785       0.03257704      -0.00636001      -0.00036289
Mg      12.62633908       0.00148362      10.27094160       0.00554278       0.00455179      -0.00457263
Mg      12.62621057       1.82207651      12.83603033       0.00128929      -0.00246557      -0.00931513
Mg      -1.57726462       2.74039334      10.26726631      -0.00662473      -0.02362263      -0.00781494
Mg      -1.57628746       4.55952907      12.83476057       0.00424306      -0.01384897      -0.00157854
Mg       1.57190706       2.73589326      10.25991034       0.00838892       0.00418204       0.02837565
Mg       1.57699932       4.56570283      12.84187017       0.00270384      -0.04377037      -0.03561652
Mg       4.73017176       2.73102171      10.26851558       0.01999311       0.01197098      -0.01224790
Mg       4.72863218       4.55569923      12.82670105       0.01875322      -0.00113390       0.01263828
Mg       7.89514051       2.72355307      10.27932049      -0.03263702       0.03369550      -0.03071324
Mg       7.89164001       4.55415995      12.84036867      -0.01127514       0.00688816      -0.02867246
Mg      11.04586042       2.73780939      10.26356561       0.02590691      -0.02432784       0.00052075
Mg      11.04817364       4.54966982      12.81865292       0.01308809       0.02199326       0.05251291
Mg      -3.14760776       5.46725671      10.27820888      -0.02589543       0.00283798      -0.04932647
Mg      -3.15122093       7.29603319      12.82791645      -0.01713305      -0.01266448       0.01881626
Mg      -0.00367248       5.47183235      10.26177647       0.02041758      -0.01886848       0.01471922
Mg       0.01084567       7.29032397      12.82549921      -0.03559717       0.01769965       0.01411766
Mg       3.14895124       5.47320727      10.27018646       0.01497463      -0.01305768      -0.01059602
Mg       3.15413855       7.29142649      12.83871257       0.02297031       0.01154350      -0.03101781
Mg       6.31872798       5.47296975      10.26339361      -0.01744549      -0.03396176       0.01481379
Mg       6.31878278       7.29014791      12.83294094      -0.02713334      -0.00329110      -0.00003804
Mg       9.47999985       5.45000373      10.26867157      -0.01989736       0.05875232      -0.01066399
Mg       9.46398897       7.28177185      12.83126760       0.03237840       0.01256474       0.00140927
Mg      -4.72750204       8.20716101      10.27010039      -0.03245570      -0.02202227      -0.01911562
Mg      -4.74679841      10.02256007      12.83664518       0.02699777      -0.00582871      -0.00921035
Mg      -1.57502236       8.19422997      10.25885062      -0.00623685       0.03338289       0.02687350
Mg      -1.58624319      10.03267138      12.84088513       0.02327054      -0.02450937      -0.03540079
Mg       1.57495557       8.20284323      10.26584134       0.04480023       0.00231796      -0.00254485
Mg       1.57285272      10.02540134      12.83547537       0.00990807       0.00858625      -0.00751981
Mg       4.75237511       8.19907572      10.26136780      -0.06561943       0.00978923       0.01374605
Mg       4.73118260      10.02028209      12.82876213       0.00494044       0.02180462      -0.00249158
Mg       7.88499041       8.19100082      10.28086418       0.05643156       0.02228611      -0.04108539
Mg       7.89204181      10.02295780      12.83360077      -0.01671600       0.00256309      -0.00419070
120
Lattice="15.784065 0.0 0.0 -6.313626 10.93552101 0.0 0.0 0.0 15.3984" Properties=species:S:1:pos:R:3:forces:R:3 energy=-180.12329808 stress="-0.0071326261235130865 0.0001350925841696067 1.625844470692204e-06 0.0001350925841696067 -0.004586209020033654 4.1419715615912705e-06 1.625844470692204e-06 4.1419715615912705e-06 -0.0037130697220070187" free_energy=-180.12557358 pbc="T T T"
Mg      15.76818475       0.00101000      15.39289353       0.04090682       0.02958512       0.03070282
Mg      -0.00154655       1.82961688       2.57062260      -0.00215828      -0.01437901      -0.03603660
Mg       3.15656727       0.00129006       0.00235965      -0.02327565       0.00093907       0.00137169
Mg       3.14964287       1.82572854       2.56648998       0.01141777      -0.03095705       0.03777648
Mg       6.30224430       0.01647075       0.01693208       0.03774376      -0.04076281      -0.04664966
Mg       6.31072318       1.80212214       2.57064724       0.01690814       0.05354297       0.00151811
Mg       9.48233715       0.01492567      15.39311589      -0.04405182      -0.04217079       0.01999855
Mg       9.48041507       1.82183254       2.56544766      -0.03072652       0.01381067      -0.00208153
Mg       6.30528065      10.93197025       0.01660871       0.02086560       0.03844703      -0.03988396
Mg      12.62876973       1.83861167       2.57766906       0.00644284      -0.03459723      -0.04816389
Mg      -1.57500595       2.74479740       0.00213406       0.02410528      -0.04179962      -0.00540605
Mg      -1.57820326       4.56516622       2.55634336      -0.01011928      -0.01750596       0.02832129
Mg       1.60381215       2.73273377      15.38996938      -0.08352489      -0.01105666       0.00652648
Mg       1.57255153       4.56052814       2.55079300       0.02712776      -0.01214325       0.00613114
Mg       4.72630987       2.74143724       0.03180324       0.04741779      -0.01244137      -0.11131490
Mg       4.74085226       4.54756583       2.56207618      -0.00582243       0.04401598       0.00654802
Mg       7.88771177       2.73272820      15.38712683      -0.00711625       0.00783065       0.07452231
Mg       7.88973024       4.56803450       2.58487012      -0.01254075      -0.04234441      -0.06814589
Mg      11.06420870       2.73372617      15.39247531      -0.04265631       0.00924131       0.00929386
Mg      11.03967559       4.55855012       2.56208865       0.01752555      -0.00283059      -0.00690666
Mg      -3.14925868       5.45765816      15.39735784      -0.04017846       0.05009568      -0.02341688
Mg      -3.16524441       7.28222458       2.57318012       0.02364316       0.01583770      -0.04381342
Mg       0.01010685       5.46738050      15.38818208      -0.01671147       0.01816454       0.01658639
Mg      -0.00401237       7.27200129       2.56278897       0.00431221       0.05566413      -0.01526580
Mg       3.17182087       5.47435506       0.00113686      -0.00995274      -0.00052171       0.01302184
Mg       3.14945952       7.28812670       2.57171404       0.03785298       0.01211206      -0.01641537
Mg       6.31724488       5.48014050      15.38139539      -0.00649687      -0.02201070       0.05956819
Mg       6.32592583       7.29554328       2.56998280      -0.04565274      -0.00566015      -0.03540916
Mg       9.45959727       5.45353634      15.39789062       0.04008618       0.03367653       0.00191391
Mg       9.46914272       7.31079265       2.55151457      -0.00747122      -0.06455487       0.03436120
Mg      11.03821746       8.20100322      15.39766842       0.03696486      -0.03172318      -0.02868898
Mg      -4.73152818      10.01649042       2.54439497      -0.02087097       0.03711089       0.05536252
Mg      -1.57914311       8.21244254      15.37867835       0.01676171      -0.04775605       0.04765175
Mg      -1.58962411      10.00310195       2.56482988       0.01549599       0.03195714       0.01878309