108
Lattice="10.8568 0.0 0.0 0.05434462 10.85666399 0.0 0.05434462 0.05407327 10.85652932" Properties=species:S:1:pos:R:3:forces:R:3 energy=-405.23498303 stress="-0.0002905595263071261 0.0026162354297162393 0.0026032758098276207 0.0026162354297162393 -0.00031681768002989947 0.0025902160199590403 0.0026032758098276207 0.0025902160199590403 -0.0003426688748746471" free_energy=-405.24587767 pbc="T T T"
Cu       0.00000000       0.00000000       0.00000000      -0.00004182      -0.00005930      -0.00005576
Cu       1.81852774       1.80944762       0.00000000      -0.00818395      -0.00816845       0.00056768
Cu       0.01811491       1.81845985       1.80942517       0.00052575      -0.00819730      -0.00816290
Cu       1.81852774       0.00901223       1.80942517      -0.00821147       0.00055937      -0.00821707
Cu       3.61892971       0.00000000       0.00000000       0.00379230       0.00108944       0.00105656
Cu       5.43745745       1.80944762       0.00000000      -0.00112193      -0.00382465      -0.00113060
Cu       3.63704462       1.81845985       1.80942517      -0.00255623      -0.00220748      -0.00223772
Cu       5.43745745       0.00901223       1.80942517      -0.00107643      -0.00115375      -0.00380305
Cu       7.23787029       0.00000000       0.00000000      -0.00375259      -0.00115836      -0.00111453
Cu       9.05638717       1.80944762       0.00000000       0.00935087      -0.00949383      -0.00003365
Cu       7.25598520       1.81845985       1.80942517       0.00755135       0.00749037       0.00748286
Cu       9.05638717       0.00901223       1.80942517       0.00933107      -0.00008713      -0.00946065
Cu       0.01811486       3.61888438       0.00000000       0.00115581       0.00378404       0.00109939
Cu       1.83664260       5.42833199       0.00000000      -0.00376970      -0.00107420      -0.00109848
Cu       0.03622976       5.43734422       1.80942517      -0.00114123      -0.00109887      -0.00373941
Cu       1.83664260       3.62789661       1.80942517      -0.00223422      -0.00252580      -0.00219477
Cu       3.63704457       3.61888438       0.00000000       0.00817125       0.00816130      -0.00065251
Cu       5.45557231       5.42833199       0.00000000      -0.00003341       0.00003734       0.00006747
Cu       3.65515948       5.43734422       1.80942517       0.00939043      -0.00001909      -0.00936855
Cu       5.45557231       3.62789661       1.80942517       0.00000929       0.00941458      -0.00933286
Cu       7.25598514       3.61888438       0.00000000      -0.00937075       0.00938400       0.00004831
Cu       9.07450202       5.42833199       0.00000000       0.00380340       0.00117619       0.00116836
Cu       7.27410005       5.43734422       1.80942517      -0.00821015       0.00063163      -0.00807528
Cu       9.07450202       3.62789661       1.80942517       0.00222229       0.00226005       0.00261944
Cu       0.03622976       7.23777961       0.00000000      -0.00113642      -0.00372133      -0.00110928
Cu       1.85475745       9.04721637       0.00000000      -0.00939569       0.00939159      -0.00005352
Cu       0.05434462       9.05622860       1.80942517      -0.00003501       0.00933956      -0.00948817
Cu       1.85475751       7.24679184       1.80942517       0.00755573       0.00750140       0.00744681
Cu       3.65515948       7.23777961       0.00000000       0.00934884      -0.00940520       0.00001661
Cu       5.47368717       9.04721637       0.00000000       0.00116462       0.00378895       0.00112237
Cu       3.67327433       9.05622860       1.80942517       0.00226471       0.00217871       0.00251309
Cu       5.47368722       7.24679184       1.80942517       0.00057646      -0.00821603      -0.00812946
Cu       7.27410005       7.23777961       0.00000000      -0.00816851      -0.00807125       0.00070618
Cu       9.09261688       9.04721637       0.00000000       0.00818750       0.00816619      -0.00065228
Cu       7.29221491       9.05622860       1.80942517      -0.00223073      -0.00258201      -0.00225882
Cu       9.09261693       7.24679184       1.80942517      -0.00260927      -0.00221647      -0.00223806
Cu       0.01811486       0.01802441       3.61883949       0.00107844       0.00112802       0.00377145
Cu       1.83664260       1.82747202       3.61883949      -0.00223882      -0.00216329      -0.00250537
Cu       0.03622976       1.83648425       5.42826466      -0.00113736      -0.00372876      -0.00105056
Cu       1.83664260       0.02703663       5.42826466      -0.00380430      -0.00107561      -0.00103514
Cu       3.63704457       0.01802441       3.61883949       0.00822593      -0.00059417       0.00815302
Cu       5.45557231       1.82747202       3.61883949       0.00003460      -0.00929890       0.00944947
Cu       3.65515948       1.83648425       5.42826466       0.00937170      -0.00932207       0.00005865
Cu       5.45557231       0.02703663       5.42826466       0.00003124       0.00005625       0.00002517
Cu       7.25598514       0.01802441       3.61883949      -0.00935022       0.00005301       0.00938368
Cu       9.07450202       1.82747202       3.61883949       0.00220693       0.00260333       0.00225200
Cu       7.27410005       1.83648425       5.42826466      -0.00819447      -0.00812674       0.00064579
Cu       9.07450202       0.02703663       5.42826466       0.00377333       0.00115382       0.00113779
Cu       0.03622971       3.63690878       3.61883949      -0.00057020       0.00823352       0.00820138
Cu       1.85475745       5.44635640       3.61883949      -0.00934132       0.00003014       0.00943969
Cu       0.05434462       5.45536863       5.42826466       0.00003690      -0.00004132      -0.00002444
Cu       1.85475745       3.64592101       5.42826466      -0.00934291       0.00944011       0.00002908
Cu       3.65515942       3.63690878       3.61883949      -0.00751305      -0.00743831      -0.00741712
Cu       5.47368717       5.44635640       3.61883949       0.00113467       0.00111007       0.00378375
Cu       3.67327433       5.45536863       5.42826466       0.00378704       0.00106536       0.00108650
Cu       5.47368717       3.64592101       5.42826466       0.00109940       0.00380058       0.00107046
Cu       7.27410000       3.63690878       3.61883949       0.00256145       0.00226667       0.00224237
Cu       9.09261688       5.44635640       3.61883949       0.00816220      -0.00060733       0.00813913
Cu       7.29221491       5.45536863       5.42826466      -0.00382433      -0.00115592      -0.00119596
Cu       9.09261688       3.64592101       5.42826466       0.00820105       0.00813230      -0.00067286
Cu       0.05434462       7.25580402       3.61883949      -0.00001672      -0.00941222       0.00938999
Cu       1.87287231       9.06524078       3.61883949       0.00257967       0.00217977       0.00220535
Cu       0.07245948       9.07425301       5.42826466       0.00112918       0.00377415       0.00115148
Cu       1.87287236       7.26481625       5.42826466      -0.00817313      -0.00821357       0.00065557
Cu       3.67327433       7.25580402       3.61883949       0.00228050       0.00250054       0.00220830
Cu       5.49180202       9.06524078       3.61883949      -0.00052214       0.00814350       0.00810486
Cu       3.69138919       9.07425301       5.42826466       0.00818165       0.00810568      -0.00062828
Cu       5.49180207       7.26481625       5.42826466      -0.00116445      -0.00385619      -0.00116664
Cu       7.29221491       7.25580402       3.61883949      -0.00226516      -0.00227145      -0.00261749
Cu       9.11073173       9.06524078       3.61883949      -0.00758457      -0.00753068      -0.00752698
Cu       7.31032976       9.07425301       5.42826466      -0.00935168       0.00942824      -0.00003202
Cu       9.11073179       7.26481625       5.42826466       0.00937809      -0.00943388      -0.00004115
Cu       0.03622976       0.03604886       7.23768983      -0.00114381      -0.00110896      -0.00371314
Cu       1.85475751       1.84549648       7.23768983       0.00754827       0.00753319       0.00748932
Cu       0.05434462       1.85450866       9.04710415       0.00000712      -0.00942775       0.00936448
Cu       1.85475745       0.04506104       9.04710415      -0.00939275       0.00003154       0.00940471
Cu       3.65515948       0.03604886       7.23768983       0.00935169       0.00000352      -0.00936271
Cu       5.47368722       1.84549648       7.23768983       0.00055012      -0.00817765      -0.00816698
Cu       3.67327433       1.85450866       9.04710415       0.00222749       0.00256314       0.00218050
Cu       5.47368717       0.04506104       9.04710415       0.00114781       0.00112772       0.00378291
Cu       7.27410005       0.03604886       7.23768983      -0.00816337       0.00064019      -0.00811186
Cu       9.09261693       1.84549648       7.23768983      -0.00257454      -0.00227125      -0.00221828
Cu       7.29221491       1.85450866       9.04710415      -0.00223298      -0.00230648      -0.00257804
Cu       9.09261688       0.04506104       9.04710415       0.00820029      -0.00062574       0.00816697
Cu       0.05434462       3.65493324       7.23768983       0.00005000       0.00933530      -0.00945153
Cu       1.87287236       5.46438086       7.23768983      -0.00816146       0.00057016      -0.00818760
Cu       0.07245948       5.47339304       9.04710415       0.00117383       0.00115154       0.00376169
Cu       1.87287231       3.66394542       9.04710415       0.00260006       0.00220330       0.00216497
Cu       3.67327433       3.65493324       7.23768983       0.00221405       0.00222629       0.00252080
Cu       5.49180207       5.46438086       7.23768983      -0.00119268      -0.00117570      -0.00384822
Cu       3.69138919       5.47339304       9.04710415       0.00816075      -0.00060277       0.00812875
Cu       5.49180202       3.66394542       9.04710415      -0.00059513       0.00815868       0.00811247
Cu       7.29221491       3.65493324       7.23768983      -0.00226601      -0.00263040      -0.00228824
Cu       9.11073179       5.46438086       7.23768983       0.00940132      -0.00006765      -0.00945618
Cu       7.31032976       5.47339304       9.04710415      -0.00937364       0.00005385       0.00942672
Cu       9.11073173       3.66394542       9.04710415      -0.00751280      -0.00757396      -0.00749728
Cu       0.07245953       7.27382848       7.23768983       0.00060083      -0.00817807      -0.00812617
Cu       1.89098722       9.08326524       7.23768983      -0.00228088      -0.00256546      -0.00215290
Cu       0.09057433       9.09227741       9.04710415      -0.00055820       0.00822808       0.00818242
Cu       1.89098722       7.28284065       9.04710415      -0.00225037      -0.00218837      -0.00255009
Cu       3.69138924       7.27382848       7.23768983      -0.00262682      -0.00227608      -0.00222189
Cu       5.50991693       9.08326524       7.23768983      -0.00000797       0.00939884      -0.00937399
Cu       3.70950404       9.09227741       9.04710415      -0.00759727      -0.00749553      -0.00743518
Cu       5.50991693       7.28284065       9.04710415      -0.00003297      -0.00932722       0.00945153
Cu       7.31032982       7.27382848       7.23768983       0.00754918       0.00752685       0.00747054
Cu       9.12884664       9.08326524       7.23768983       0.00228682       0.00229369       0.00263077
Cu       7.32844462       9.09227741       9.04710415       0.00263116       0.00230032       0.00229148
Cu       9.12884664       7.28284065       9.04710415       0.00228332       0.00266029       0.00228161
108
Lattice="10.8568 0.0 0.0 0.05434462 10.85666399 0.0 0.05434462 0.05407327 10.85652932" Properties=species:S:1:pos:R:3:forces:R:3 energy=-405.21389571 stress="-0.0005579574426405212 0.002576112843251395 0.002549554366834012 0.002576112843251395 -0.0006023471179588942 0.002558907555368567 0.002549554366834012 0.002558907555368567 -0.000614127180003849" free_energy=-405.22477041 pbc="T T T"
Cu      10.96458739      10.90761858      10.85646440       0.01346912       0.03056894       0.00459867
Cu       1.86959340       1.87001704      10.85495132       0.00484092      -0.04848119       0.01436690
Cu       0.02075758       1.82018266       1.80841562      -0.02434004      -0.02462926      -0.00733425
Cu       1.81661521       0.01366599       1.80991545      -0.00305035      -0.05615559      -0.03261648
Cu       3.62049898       0.00533791       0.00080870      -0.01159916      -0.05871224      -0.00281203
Cu       5.43678260       1.80993201       0.00027728       0.02175679      -0.02127731      -0.00002797
Cu       3.63555196       1.80742385       1.81049736       0.00404260       0.08072073      -0.01550372
Cu       5.44419652       0.00946306       1.81482076      -0.03065634      -0.00657886      -0.05331093
Cu       7.29639176      10.85544970       0.00057268      -0.02514643       0.01011520      -0.02404798
Cu       9.05532719       1.82129759       0.00057388       0.03907481      -0.09296419      -0.00168425
Cu       7.25939799       1.81333171       1.80713781      -0.01046454       0.03440003       0.01842686
Cu       9.11155114      10.86402298       1.81162916       0.02957570       0.01148622      -0.03451390
Cu       0.07389916       3.67565880      10.85535584       0.00192103      -0.00075316       0.00466263
Cu       1.88997355       5.48549776      10.85473593       0.00724290      -0.03294071       0.01811326
Cu      10.89266413       5.43634253       1.80304783       0.00217794       0.02243903       0.06121059
Cu       1.82826090       3.62176805       1.81797653       0.03993645       0.03160800      -0.04205688
Cu       3.64054560       3.61745848       0.00207316      -0.00589191       0.02564329       0.02033726
Cu       5.45839867       5.43432668       0.00544227      -0.04762597      -0.03853340      -0.05071856
Cu       3.64890420       5.43242578       1.80697366       0.03689425       0.02108539       0.01114871
Cu       5.45654179       3.62827077       1.81749939      -0.02889368       0.00011928      -0.05265542
Cu       7.25334773       3.61826553       0.00987011      -0.02099632       0.02720771      -0.05372030
Cu       9.12791068       5.48013434      10.85429961      -0.01312479       0.03771624       0.00949174
Cu       7.26825344       5.43899875       1.80887366       0.03640405      -0.01030866       0.01088070
Cu       9.07677456       3.63007213       1.80457719      -0.02856382       0.00880555       0.05946608
Cu       0.09146123       7.29222336      10.85377122      -0.02973948      -0.00292760       0.00594567
Cu       1.90722622       9.09767498      10.85580030       0.02528688       0.06087921       0.01308419
Cu      10.91099968       9.05981960       1.81218143      -0.00310262      -0.03125547       0.00083038
Cu       1.85677456       7.24979353       1.80943245      -0.02494493      -0.01260832       0.01924461
Cu       3.65053301       7.23924557       0.00335347       0.04215112      -0.01604009      -0.02460784
Cu       5.52776051       9.09927057      10.85224425      -0.00163833       0.01959764       0.01864758
Cu       3.67660318       9.05554333       1.81265097      -0.01624026       0.02548902      -0.02723427
Cu       5.47243603       7.24335484       1.80567674      -0.02236879       0.00996476       0.03267544
Cu       7.32285458       7.29023430      10.85544616       0.02678386       0.01107653      -0.01944693
Cu       9.09324586       9.04519093       0.00995717       0.00593192      -0.01193456      -0.06357378
Cu       7.28742270       9.05512402       1.80599777       0.01754286      -0.02614096       0.02808013
Cu       9.08959230       7.24503077       1.81092663       0.02103732      -0.00340743      -0.00784307
Cu       0.01930660       0.01831262       3.61987911      -0.02889784       0.00414979      -0.01351706
Cu       1.84211048       1.81669737       3.62065828      -0.05050722       0.06662777      -0.00955540
Cu      10.88790224       1.83865204       5.42467506       0.03999267      -0.03597574       0.01918417
Cu       1.88759080      10.88100573       5.42114810       0.03481287       0.02961009       0.05565510
Cu       3.64131296       0.02204247       3.61343587       0.00684884      -0.06015986       0.05660826
Cu       5.45590454       1.83525389       3.61692733       0.02727096      -0.06973967       0.03286412
Cu       3.65830645       1.83296900       5.41948477       0.00727745      -0.00655667       0.06215289
Cu       5.45766077       0.02769509       5.43526224       0.02519059      -0.00105541      -0.08003484
Cu       7.31907894      10.87292542       3.61137106      -0.07579221       0.01877982       0.09565549
Cu       9.07652422       1.82733905       3.61311050      -0.02580632       0.00430797       0.02775630
Cu       7.27301006       1.84667890       5.43326127      -0.00471602      -0.06502637      -0.03727164
Cu       9.12540487      10.88188000       5.43014675       0.02078098       0.03166883      -0.01826280
Cu      10.88393057       3.63858939       3.62173840       0.07059818       0.01150030      -0.00947095
Cu       1.86432760       5.44947801       3.61702894      -0.08075836      -0.02554092       0.03223026
Cu      10.90928817       5.44864106       5.42634143       0.03785023       0.03992958       0.02472708
Cu       1.86031253       3.63910305       5.42894450      -0.06131106       0.04541260      -0.02933157
Cu       3.64918905       3.63309525       3.61750533       0.02123799       0.01852924      -0.00127111
Cu       5.47406490       5.44410808       3.62234658      -0.04977035       0.02922039      -0.02289938
Cu       3.67160187       5.45347475       5.43414032       0.02749718       0.01687929      -0.01890075
Cu       5.47506016       3.65336242       5.42585180      -0.02052967      -0.04218062       0.05632564
Cu       7.27001698       3.63687725       3.61867621       0.06514185      -0.00365119      -0.02056579
Cu       9.08996806       5.45140955       3.62534059       0.01627339      -0.04520707      -0.05553188
Cu       7.28972999       5.45786164       5.42266161       0.00908647      -0.02796580       0.06259467
Cu       9.09310038       3.64295153       5.42774843      -0.01393792       0.02974450      -0.00159398
Cu      10.91052794       7.25211276       3.62684064       0.00329428      -0.00432136      -0.05994211
Cu       1.87206266       9.06024734       3.61950977       0.02512764       0.03706946      -0.03401379
Cu       0.07598209       9.07856283       5.41890188      -0.04721873      -0.03509482       0.06221100
Cu       1.87502086       7.26977793       5.42609976      -0.04809627      -0.06242152       0.02800920
Cu       3.67434328       7.25807222       3.62494889       0.01206073      -0.01957080      -0.03742945
Cu       5.48688215       9.06583837       3.61786729       0.04831278       0.02125824       0.03460853
Cu       3.68683585       9.07388107       5.43306314       0.03496842       0.03446230      -0.04353496
Cu       5.49666745       7.27103638       5.42325698      -0.04565085      -0.05010004       0.05009054
Cu       7.29045408       7.25154740       3.61817648      -0.01280376       0.04898401      -0.03390568
Cu       9.10598258       9.06398081       3.62164026       0.02147145      -0.01217303      -0.03400568
Cu       7.31481021       9.07014733       5.43166275      -0.04079455       0.04137758      -0.01843588
Cu       9.10474696       7.26356875       5.42262719       0.05738942       0.00651492       0.07289220
Cu       0.09723720      10.88902549       7.23596734      -0.03295992       0.03935040      -0.00225209
Cu       1.85391979       1.85189755       7.23945141       0.00509327      -0.05474899      -0.02719596
Cu      10.91086145       1.85412806       9.04791719      -0.00220985      -0.01441960       0.01009829
Cu       1.86143901       0.04991428       9.04326398      -0.02812798      -0.02818424       0.03947816
Cu       3.71260013      10.88817436       7.23649507      -0.03832037       0.05633564      -0.01584041
Cu       5.46688150       1.84226627       7.23844599       0.04527037       0.03087917      -0.00068497
Cu       3.67103894       1.85750046       9.04800350       0.02662273      -0.02307092       0.00526164
Cu       5.52640894      10.89538145       9.04742496       0.02891089       0.05606833      -0.00226635
Cu       7.27818099       0.03817728       7.23358520      -0.02916751       0.00333011       0.01923622
Cu       9.09848860       1.84601985       7.23988600      -0.01439201      -0.02606892       0.00921973
Cu       7.30057067       1.85629664       9.04743017      -0.04846273      -0.03127477      -0.00077865
Cu       9.14988303      10.89364866       9.05307850       0.01040432       0.05362462      -0.01594903
Cu      10.90849564       3.65394413       7.23464599       0.02689647       0.02104687       0.01994224
Cu       1.87285633       5.46533520       7.23907024      -0.04766082      -0.00986865      -0.03073198
Cu      10.92876247       5.47032123       9.04439783       0.00416426       0.03817744       0.00494975
Cu       1.87633236       3.66481200       9.05331647      -0.02474136       0.00739661      -0.03453988
Cu       3.66385441       3.64858983       7.23682392       0.08170844       0.04078968       0.00486124
Cu       5.49794935       5.46475089       7.24362575      -0.05648576      -0.01766680      -0.05250942
Cu       3.68471370       5.47788457       9.04178966       0.07066005      -0.04036235       0.05442904
Cu       5.49340276       3.66077606       9.05103356      -0.01190299       0.02811208      -0.01532430
Cu       7.30269430       3.65553827       7.24069557      -0.07113124      -0.00545178      -0.01801827
Cu       9.11086970       5.46563485       7.23669613       0.01423839       0.00837389      -0.02580566
Cu       7.30637722       5.47133643       9.04153953       0.00562717      -0.00029865       0.06297387
Cu       9.11052407       3.66659716       9.05187733       0.00153034      -0.00174294      -0.02594251
Cu       0.07342354       7.27852505       7.24300410      -0.01463263      -0.03679755      -0.05810378
Cu       1.88982163       9.08252039       7.23473197       0.00738052       0.00647877       0.01264813
Cu       0.09798581       9.09652206       9.04704129      -0.04053939      -0.02276751       0.02665349
Cu       1.89597005       7.28788805       9.04852700      -0.04043874      -0.02295508      -0.01432740
Cu       3.68547172       7.26993531       7.23845891       0.04583845       0.00707456      -0.03488445
Cu       5.50075529       9.08385342       7.23158043       0.06909095      -0.00437004       0.00935644
Cu       3.71374559       9.08977522       9.04020515      -0.04243760       0.01492995       0.04618417
Cu       5.50931159       7.28550482       9.04255819      -0.00834121      -0.02088436       0.03329579
Cu       7.30882581       7.27525344       7.24144391       0.00958415       0.00251142      -0.03922785
Cu       9.13419235       9.08497111       7.24132199       0.00411853      -0.02042895      -0.03200446
Cu       7.33248928       9.09537750       9.03639538      -0.03325378      -0.00542600       0.06302807
Cu       9.11857341       7.27975426       9.04434583       0.06813584       0.02293548       0.03631418
108
Lattice="10.8568 0.0 0.0 0.05434462 10.85666399 0.0 0.05434462 0.05407327 10.85652932" Properties=species:S:1:pos:R:3:forces:R:3 energy=-405.15278186 stress="-0.0008488091464728482 0.002561164204200576 0.002570883101479345 0.002561164204200576 -0.0008544520262169587 0.002524318029294764 0.002570883101479345 0.002524318029294764 -0.0008707002847809874" free_energy=-405.16359466 pbc="T T T"
Cu      10.96368763      10.90450457      10.85640013       0.02423725       0.06436798       0.00715795
Cu       1.86631518       1.87650582      10.85337550       0.03191366      -0.09004309       0.03025255
Cu       0.02339663       1.82190177       1.80740477      -0.05779853      -0.04071727       0.00055534
Cu       1.81470229       0.01831115       1.81040063       0.00464236      -0.10917850      -0.05629018
Cu       3.62206657       0.01066680       0.00161686      -0.02892068      -0.10849782      -0.00725228
Cu       5.43611121       1.81041326       0.00055444       0.04473245      -0.03845874       0.00255176
Cu       3.63406011       1.79640000       1.81156727       0.01414877       0.16158624      -0.03638173
Cu       5.45093098       0.00991297       1.82020820      -0.05226204      -0.00968205      -0.09940480
Cu       7.30056481      10.85423702       0.00114167      -0.05621137       0.01204273      -0.03840579
Cu       9.05427332       1.83313345       0.00114732       0.06629975      -0.17532392       0.00097771
Cu       7.26280930       1.80820869       1.80485305      -0.02206622       0.07028089       0.02918335
Cu       9.11237503      10.86237145       1.81382793       0.04663545       0.02370744      -0.06337109
Cu       0.07533907       3.67835975      10.85418301       0.00571064      -0.00507614       0.00236103
Cu       1.88896107       5.48858516      10.85294515       0.01341317      -0.05840700       0.03575418
Cu      10.89229900       5.43534424       1.79667982       0.01221971       0.05302012       0.11778336
Cu       1.81988539       3.61564435       1.82652149       0.08733403       0.05442720      -0.07463211
Cu       3.64404591       3.61603660       0.00414926      -0.02599437       0.04854997       0.03400143
Cu       5.46121768       5.44031547       0.01087672      -0.09419969      -0.09365388      -0.11343887
Cu       3.64265459       5.42751049       1.80452367       0.06811812       0.03754737       0.02511585
Cu       5.45750688       3.62864501       1.82556557      -0.05650558      -0.00664509      -0.10566313
Cu       7.25070715       3.61765087       0.01973207      -0.03168401       0.04700824      -0.10328957
Cu       9.12697269       5.47786908      10.85207119      -0.02715995       0.07522367       0.01850979
Cu       7.26241248       5.44065165       1.80832389       0.09023987      -0.02614496       0.02212610
Cu       9.07904280       3.63224911       1.79973811      -0.04764616       0.02705065       0.10452197
Cu       0.09234362       7.29259330      10.85101388      -0.05403258      -0.00254965       0.00727266
Cu       1.90535423       9.09406944      10.85507324       0.05998821       0.11142682       0.02759286
Cu      10.91085429       9.06340582       1.81493768       0.00252183      -0.07913653       0.01060190
Cu       1.85878782       7.25279328       1.80944254      -0.04942412      -0.02381506       0.03568911
Cu       3.64591302       7.24070912       0.00670326       0.08230236      -0.02304028      -0.05171386
Cu       5.52748894       9.09725443      10.84796200      -0.00150196       0.04309821       0.03706744
Cu       3.67992953       9.05486194       1.81587265      -0.03421427       0.04801668      -0.05871530
Cu       5.47118152       7.23991928       1.80193319      -0.05059883       0.03060508       0.07790272
Cu       7.31726850       7.28861732      10.85435997       0.06992416       0.02876939      -0.03765239
Cu       9.09387587       9.04316371       0.01990458      -0.00175766      -0.03391333      -0.13067088
Cu       7.28263309       9.05401544       1.80257449       0.02799478      -0.04602847       0.04917494
Cu       9.08657092       7.24326926       1.81242679       0.04641457      -0.00782223      -0.01591919
Cu       0.02049389       0.01860136       3.62091667      -0.05594651       0.00778243      -0.03004910
Cu       1.84757080       1.80593292       3.62247556      -0.10938901       0.13094165      -0.00890635
Cu      10.88278077       1.84081430       5.42108839       0.07277101      -0.06005374       0.03384676
Cu       1.88419967      10.87831544       5.41403978       0.07337999       0.05555494       0.09912037
Cu       3.64558232       0.02605134       3.60804082      -0.00219855      -0.11729731       0.10231426
Cu       5.45624086       1.84302515       3.61502005       0.05650041      -0.13056952       0.06115596
Cu       3.66145443       1.82945270       5.41071432      -0.00209300      -0.00675895       0.12161292
Cu       5.45975307       0.02835339       5.44224765       0.04800524      -0.00356690      -0.16436081
Cu       7.32781659      10.87116534       3.60391719      -0.14396965       0.03540250       0.17846009
Cu       9.07854242       1.82720674       3.60738574      -0.04831244       0.00491895       0.05700487
Cu       7.27191933       1.85686364       5.43825223       0.00178722      -0.12168197      -0.07028722
Cu       9.12196624      10.88006414       5.43202590       0.04746913       0.06015584      -0.03318656
Cu      10.87484218       3.64027173       3.62463579       0.13409234       0.01041588      -0.03545623
Cu       1.87388559       5.45259584       3.61522329      -0.14573352      -0.04143119       0.05630402
Cu      10.90743752       5.44191947       5.42442199       0.07639987       0.08604503       0.05067065
Cu       1.86585840       3.63229190       5.42961966      -0.11089068       0.07754482      -0.05785797
Cu       3.64322184       3.62928454       3.61617095       0.05818303       0.04404930       0.00357501
Cu       5.47443525       5.44186431       3.62584998      -0.09546010       0.05430937      -0.05390203
Cu       3.66993353       5.45158334       5.44001316       0.04546837       0.02869700      -0.03539632
Cu       5.47643012       3.66079747       5.42344751      -0.05140666      -0.07982769       0.11169250
Cu       7.26594393       3.63684515       3.61850988       0.12243298      -0.00568345      -0.03718012
Cu       9.08732177       5.45645572       3.63183323       0.02541578      -0.09264785      -0.12416946