108
Lattice="10.9653 0.0 0.0 0.0 10.9653 0.0 0.0 0.0 10.9653" Properties=species:S:1:pos:R:3:forces:R:3 energy=-405.11946456 stress="0.024901835991139685 -2.1888972504472587e-08 1.6190474672541173e-08 -2.1888972504472587e-08 0.024901836022347232 1.0722912678267439e-08 1.6190474672541173e-08 1.0722912678267439e-08 0.02490179956569243" free_energy=-405.13439366 pbc="T T T"
Cu       0.00000000       0.00000000       0.00000000      -0.00000823      -0.00001229      -0.00000190
Cu       1.82755366       1.82755366       0.00000000      -0.00934749      -0.00934653      -0.00001418
Cu       0.00000000       1.82755366       1.82755366      -0.00002042      -0.00934868      -0.00934110
Cu       1.82755366       0.00000000       1.82755366      -0.00934324      -0.00001846      -0.00933712
Cu       3.65509634       0.00000000       0.00000000       0.00445349      -0.00001451      -0.00000597
Cu       5.48265000       1.82755366       0.00000000       0.00000798      -0.00443997      -0.00000271
Cu       3.65509634       1.82755366       1.82755366      -0.00100347       0.00101292       0.00102943
Cu       5.48265000       0.00000000       1.82755366       0.00000510      -0.00000781      -0.00442607
Cu       7.31020366       0.00000000       0.00000000      -0.00444438       0.00000298       0.00000768
Cu       9.13774634       1.82755366       0.00000000       0.00934130      -0.00934104      -0.00000309
Cu       7.31020366       1.82755366       1.82755366       0.00101710       0.00101780       0.00102385
Cu       9.13774634       0.00000000       1.82755366       0.00933659      -0.00000821      -0.00933700
Cu       0.00000000       3.65509634       0.00000000      -0.00001420       0.00445004      -0.00001314
Cu       1.82755366       5.48265000       0.00000000      -0.00443363       0.00001700      -0.00001238
Cu       0.00000000       5.48265000       1.82755366      -0.00000942       0.00001014      -0.00444604
Cu       1.82755366       3.65509634       1.82755366       0.00101697      -0.00100576       0.00102452
Cu       3.65509634       3.65509634       0.00000000       0.00936072       0.00936652      -0.00001014
Cu       5.48265000       5.48265000       0.00000000      -0.00000624       0.00000316      -0.00001103
Cu       3.65509634       5.48265000       1.82755366       0.00935212       0.00001467      -0.00936205
Cu       5.48265000       3.65509634       1.82755366       0.00000801       0.00934902      -0.00936150
Cu       7.31020366       3.65509634       0.00000000      -0.00935055       0.00935485      -0.00000074
Cu       9.13774634       5.48265000       0.00000000       0.00444299       0.00000186       0.00000543
Cu       7.31020366       5.48265000       1.82755366      -0.00934412       0.00000439      -0.00935499
Cu       9.13774634       3.65509634       1.82755366      -0.00102594      -0.00101363       0.00101446
Cu       0.00000000       7.31020366       0.00000000       0.00000212      -0.00443883       0.00000681
Cu       1.82755366       9.13774634       0.00000000      -0.00934566       0.00933047       0.00000812
Cu       0.00000000       9.13774634       1.82755366      -0.00000246       0.00933848      -0.00934826
Cu       1.82755366       7.31020366       1.82755366       0.00102430       0.00102622       0.00101509
Cu       3.65509634       7.31020366       0.00000000       0.00935080      -0.00935352       0.00000217
Cu       5.48265000       9.13774634       0.00000000      -0.00000933       0.00443303       0.00000645
Cu       3.65509634       9.13774634       1.82755366      -0.00101601      -0.00102865       0.00102609
Cu       5.48265000       7.31020366       1.82755366       0.00000010      -0.00933895      -0.00935198
Cu       7.31020366       7.31020366       0.00000000      -0.00935241      -0.00935663       0.00001392
Cu       9.13774634       9.13774634       0.00000000       0.00935773       0.00933866       0.00001624
Cu       7.31020366       9.13774634       1.82755366       0.00101762      -0.00102336       0.00103759
Cu       9.13774634       7.31020366       1.82755366      -0.00102181       0.00102264       0.00101852
Cu       0.00000000       0.00000000       3.65509634      -0.00000344      -0.00000513       0.00445545
Cu       1.82755366       1.82755366       3.65509634       0.00102308       0.00101263      -0.00099041
Cu       0.00000000       1.82755366       5.48265000       0.00000381      -0.00443759       0.00001435
Cu       1.82755366       0.00000000       5.48265000      -0.00443473       0.00001174       0.00000080
Cu       3.65509634       0.00000000       3.65509634       0.00936261      -0.00000849       0.00936474
Cu       5.48265000       1.82755366       3.65509634       0.00000313      -0.00937396       0.00935251
Cu       3.65509634       1.82755366       5.48265000       0.00934172      -0.00936289       0.00000405
Cu       5.48265000       0.00000000       5.48265000      -0.00000554      -0.00000859      -0.00000152
Cu       7.31020366       0.00000000       3.65509634      -0.00935810      -0.00000760       0.00935630
Cu       9.13774634       1.82755366       3.65509634      -0.00102627       0.00101210      -0.00101190
Cu       7.31020366       1.82755366       5.48265000      -0.00934245      -0.00936847      -0.00000379
Cu       9.13774634       0.00000000       5.48265000       0.00443665       0.00000843      -0.00000431
Cu       0.00000000       3.65509634       3.65509634      -0.00000073       0.00934723       0.00937313
Cu       1.82755366       5.48265000       3.65509634      -0.00934917       0.00000532       0.00935150
Cu       0.00000000       5.48265000       5.48265000      -0.00000008      -0.00001617       0.00000431
Cu       1.82755366       3.65509634       5.48265000      -0.00935873       0.00933460       0.00001240
Cu       3.65509634       3.65509634       3.65509634      -0.00102450      -0.00102502      -0.00101087
Cu       5.48265000       5.48265000       3.65509634       0.00000043       0.00001430       0.00443593
Cu       3.65509634       5.48265000       5.48265000       0.00443574      -0.00000673       0.00000355
Cu       5.48265000       3.65509634       5.48265000      -0.00000576       0.00443190       0.00001272
Cu       7.31020366       3.65509634       3.65509634       0.00102628      -0.00103165      -0.00102770
Cu       9.13774634       5.48265000       3.65509634       0.00935093       0.00000726       0.00934350
Cu       7.31020366       5.48265000       5.48265000      -0.00443496       0.00000024      -0.00000635
Cu       9.13774634       3.65509634       5.48265000       0.00936639       0.00933779       0.00000765
Cu       0.00000000       7.31020366       3.65509634      -0.00000348      -0.00933918       0.00933924
Cu       1.82755366       9.13774634       3.65509634       0.00102557      -0.00101752      -0.00102378
Cu       0.00000000       9.13774634       5.48265000      -0.00000324       0.00445379      -0.00001135
Cu       1.82755366       7.31020366       5.48265000      -0.00934897      -0.00934945      -0.00000963
Cu       3.65509634       7.31020366       3.65509634      -0.00101477       0.00103495      -0.00103644
Cu       5.48265000       9.13774634       3.65509634      -0.00000010       0.00935649       0.00935414
Cu       3.65509634       9.13774634       5.48265000       0.00936007       0.00937030      -0.00001094
Cu       5.48265000       7.31020366       5.48265000       0.00000482      -0.00442222      -0.00001121
Cu       7.31020366       7.31020366       3.65509634       0.00101669       0.00103728      -0.00102895
Cu       9.13774634       9.13774634       3.65509634      -0.00102703      -0.00101937      -0.00102746
Cu       7.31020366       9.13774634       5.48265000      -0.00936085       0.00935921      -0.00001316
Cu       9.13774634       7.31020366       5.48265000       0.00934525      -0.00934581      -0.00002073
Cu       0.00000000       0.00000000       7.31020366       0.00000355       0.00002288      -0.00445080
Cu       1.82755366       1.82755366       7.31020366       0.00101327       0.00102294       0.00100479
Cu       0.00000000       1.82755366       9.13774634      -0.00000494      -0.00933971       0.00932533
Cu       1.82755366       0.00000000       9.13774634      -0.00934262      -0.00000239       0.00933358
Cu       3.65509634       0.00000000       7.31020366       0.00935665       0.00000903      -0.00935817
Cu       5.48265000       1.82755366       7.31020366      -0.00000408      -0.00936279      -0.00935004
Cu       3.65509634       1.82755366       9.13774634      -0.00101620       0.00102247      -0.00103594
Cu       5.48265000       0.00000000       9.13774634      -0.00000317       0.00000591       0.00442878
Cu       7.31020366       0.00000000       7.31020366      -0.00936269       0.00000666      -0.00936338
Cu       9.13774634       1.82755366       7.31020366      -0.00100785       0.00102319       0.00101301
Cu       7.31020366       1.82755366       9.13774634       0.00101802       0.00102344      -0.00102227
Cu       9.13774634       0.00000000       9.13774634       0.00934532       0.00001287       0.00934397
Cu       0.00000000       3.65509634       7.31020366       0.00000213       0.00933662      -0.00935291
Cu       1.82755366       5.48265000       7.31020366      -0.00935011      -0.00001801      -0.00934282
Cu       0.00000000       5.48265000       9.13774634       0.00001039      -0.00001135       0.00444142
Cu       1.82755366       3.65509634       9.13774634       0.00101915      -0.00101072      -0.00103655
Cu       3.65509634       3.65509634       7.31020366      -0.00102591      -0.00103022       0.00102266
Cu       5.48265000       5.48265000       7.31020366      -0.00000933      -0.00000577      -0.00442837
Cu       3.65509634       5.48265000       9.13774634       0.00934949       0.00000250       0.00935848
Cu       5.48265000       3.65509634       9.13774634       0.00000157       0.00935093       0.00934804
Cu       7.31020366       3.65509634       7.31020366       0.00102412      -0.00103266       0.00102764
Cu       9.13774634       5.48265000       7.31020366       0.00936043      -0.00001930      -0.00935067
Cu       7.31020366       5.48265000       9.13774634      -0.00935849      -0.00000660       0.00935863
Cu       9.13774634       3.65509634       9.13774634      -0.00102183      -0.00102306      -0.00102313
Cu       0.00000000       7.31020366       7.31020366       0.00000487      -0.00936099      -0.00934727
Cu       1.82755366       9.13774634       7.31020366       0.00102958      -0.00100649       0.00101849
Cu       0.00000000       9.13774634       9.13774634       0.00000678       0.00934764       0.00936166
Cu       1.82755366       7.31020366       9.13774634       0.00102810       0.00101146      -0.00100475
Cu       3.65509634       7.31020366       7.31020366      -0.00101524       0.00101852       0.00103318
Cu       5.48265000       9.13774634       7.31020366      -0.00000238       0.00936729      -0.00935863
Cu       3.65509634       9.13774634       9.13774634      -0.00101726      -0.00102447      -0.00101298
Cu       5.48265000       7.31020366       9.13774634      -0.00001144      -0.00935629       0.00936074
Cu       7.31020366       7.31020366       7.31020366       0.00101108       0.00102741       0.00101745
Cu       9.13774634       9.13774634       7.31020366      -0.00102754      -0.00100474       0.00101002
Cu       7.31020366       9.13774634       9.13774634       0.00100893      -0.00101337      -0.00102185
Cu       9.13774634       7.31020366       9.13774634      -0.00101698       0.00101094      -0.00100053
108
Lattice="10.9653 0.0 0.0 0.0 10.9653 0.0 0.0 0.0 10.9653" Properties=species:S:1:pos:R:3:forces:R:3 energy=-405.10255214 stress="0.024978953562570926 2.9146848976414673e-06 7.661308897311804e-06 2.9146848976414673e-06 0.024962859438074757 -8.523804318890234e-06 7.661308897311804e-06 -8.523804318890234e-06 0.02496091508315186" free_energy=-405.11747095 pbc="T T T"
Cu      10.96114437       0.00261961      10.96478266       0.03166889      -0.00505886       0.00470658
Cu       1.82816486       1.82999727       0.00253891       0.00664311      -0.03217763      -0.01514539
Cu       0.00644847       1.82773294       1.83055332      -0.03297946      -0.01924971       0.01257860
Cu       1.82698598      10.96233970       1.83343950       0.00562674       0.03510094      -0.01531885
Cu       3.65576128       0.00053401      10.96456313      -0.00177434       0.01714811      -0.00411709
Cu       5.47929199       1.83416957      10.96365948       0.01088226      -0.03000426       0.00955422
Cu       3.65731846       1.82416878       1.83325956      -0.01434549       0.01828304      -0.01989018
Cu       5.48756421      10.96041057       1.82823427      -0.03618249       0.03237444      -0.02730677
Cu       7.30727482       0.00066713      10.96346211      -0.00064630      -0.01219911      -0.00269112
Cu       9.13441542       1.82147691       0.00380814       0.02459899       0.04279837      -0.00666570
Cu       7.30828133       1.82300262       1.82820434       0.00929178       0.02781558      -0.01726103
Cu       9.13557434      10.96272008       1.82506475       0.01909161       0.00655704       0.02689932
Cu      10.96495591       3.65392251       0.00774380      -0.01025691       0.02484477      -0.04282134
Cu       1.82920492       5.48670628       0.00580426      -0.03666635      -0.01118424      -0.07628487
Cu       0.00636612       5.48037404       1.83344937      -0.05049628       0.03726802      -0.05501548
Cu       1.82789522       3.66193463       1.82301830       0.00545861      -0.07002861       0.04175475
Cu       3.64996700       3.66053064       0.00389586       0.04720078      -0.01420577      -0.01732463
Cu       5.49137630       5.48214582       0.00563255      -0.06466715       0.01070587      -0.00932347
Cu       3.64560193       5.47815291       1.82737196       0.09565158       0.05204870      -0.00377583
Cu       5.48299003       3.65579067       1.83038994      -0.00948895       0.01247964      -0.00963880
Cu       7.30793680       3.65740322       0.00333674       0.00044581      -0.01826317      -0.01717612
Cu       9.13503583       5.48033851      10.96283204       0.04969926       0.03703746       0.02947789
Cu       7.31081694       5.48368655       1.82754225      -0.00965902       0.01559307      -0.00137152
Cu       9.13935748       3.66008150       1.82753973      -0.01153537      -0.05008933      -0.00895604
Cu       0.00205479       7.31279728       0.00046504      -0.00790668      -0.04442682      -0.00707834
Cu       1.82948201       9.14572799       0.00228681      -0.00386715      -0.02050364      -0.00835490
Cu       0.00478888       9.14359228       1.82672490      -0.01842622      -0.00753470      -0.00568420
Cu       1.83040935       7.30375167       1.81826736      -0.00314863       0.06151323       0.04937557
Cu       3.65752275       7.31415358      10.95819569       0.01160726      -0.03358263       0.03293429
Cu       5.48293488       9.13302491      10.96506556      -0.01240131       0.05194188      -0.02950795
Cu       3.66165568       9.13713295       1.83081145      -0.04889277       0.00630528      -0.01091605
Cu       5.48186050       7.31665684       1.82901983      -0.01845668      -0.04519033      -0.00443357
Cu       7.30718809       7.31455447       0.00251643       0.01594337      -0.01939100      -0.02663661
Cu       9.14188059       9.13331790       0.00413381      -0.01620932       0.02425577      -0.04703764
Cu       7.30679981       9.13921076       1.82428260       0.02451937       0.00606499       0.02520252
Cu       9.13496116       7.31505777       1.82454346       0.02454495      -0.04169366       0.00894150
Cu      10.96523783       0.00052601       3.66446378      -0.01888709       0.00895466      -0.05292493
Cu       1.83189580       1.83577993       3.66420368      -0.03144241      -0.01556387      -0.04357646
Cu      10.96301648       1.82294845       5.48482705       0.00271227       0.03704894      -0.00285764
Cu       1.82268780      10.96418318       5.47928541       0.03684452      -0.00235053       0.02126116
Cu       3.65201959       0.00093282       3.65830578       0.02427252      -0.01753654       0.00333393
Cu       5.48658457       1.82557628       3.65228221      -0.01210503      -0.01294396       0.03213051
Cu       3.65783712       1.82601259       5.47369069       0.00931422      -0.01338769       0.05199565
Cu       5.48546742      10.95798077       5.48707318      -0.02193201       0.03566821      -0.01120751
Cu       7.30804185       0.00522990       3.65844646       0.01579991      -0.05815914       0.00166199
Cu       9.13383349       1.82874098       3.65575558       0.03393265      -0.01033146      -0.01628554
Cu       7.31345925       1.82114948       5.48538244      -0.03911073       0.02372100       0.00547644
Cu       9.13478177      10.95947052       5.48139261       0.02439146       0.00793358       0.01441992
Cu      10.96364720       3.65969991       3.65571775       0.01097178      -0.03303075       0.01779126
Cu       1.83089182       5.47348575       3.65048182      -0.02420833       0.05378601       0.03843525
Cu       0.00163942       5.48014267       5.48105893      -0.01733145       0.03670219      -0.00668249
Cu       1.82860841       3.66088668       5.48607490      -0.02210566      -0.02640632      -0.00913537
Cu       3.66003632       3.65756979       3.65772736      -0.00482517      -0.00985712      -0.02294429
Cu       5.48592555       5.49271297       3.65120860      -0.01913371      -0.04120357       0.01433611
Cu       3.65513450       5.48195820       5.48213650       0.00777117       0.00712145      -0.00196813
Cu       5.47959759       3.65555656       5.48173001       0.03833123      -0.00868868      -0.01011730
Cu       7.31049753       3.65307928       3.65274089      -0.01532419       0.00762658       0.02260099
Cu       9.13554199       5.47631348       3.64741658       0.00644743       0.06118639       0.05207513
Cu       7.30671921       5.48144338       5.48221873       0.03925214       0.01219443       0.00271954
Cu       9.13762419       3.65416572       5.48271798       0.00045465       0.01838078       0.00444013
Cu      10.96423724       7.31655223       3.65037918       0.01551080      -0.05788805      -0.00765772
Cu       1.82358674       9.13559748       3.65521576       0.03053249       0.00731936      -0.02264248
Cu       0.00115037       9.13760369       5.48167540      -0.01262670       0.00405353       0.02140887
Cu       1.82903068       7.31067143       5.46975020      -0.02788101      -0.01853571       0.07358922
Cu       3.64867726       7.31014795       3.65978302       0.03030951      -0.00867606      -0.04989039
Cu       5.48238256       9.14095885       3.65368215       0.00200244      -0.01096637       0.03958786
Cu       3.65623619       9.13362690       5.48046176      -0.00535180       0.03109209       0.01764408
Cu       5.47628749       7.30056527       5.48695739       0.03427681       0.04380489      -0.00744835
Cu       7.30854417       7.31589267       3.65738206       0.00549832      -0.02080196       0.00002278
Cu       9.13832476       9.12863637       3.65430520      -0.02371904       0.07128944       0.00195206
Cu       7.30166739       9.13751322       5.49104438       0.03079749      -0.00677709      -0.05241686
Cu       9.14321035       7.31405357       5.47645636      -0.02072592      -0.05719261       0.03094805
Cu       0.00439774       0.00063588       7.31340552      -0.04892582      -0.00657378      -0.02567087
Cu       1.83253936       1.82572837       7.30779184      -0.03396010       0.01555344       0.00210292
Cu      10.96112244       1.83387800       9.13946033       0.00527480      -0.02660732       0.00318093
Cu       1.81926137      10.96349018       9.13612096       0.04631805       0.04367644       0.03078781
Cu       3.65091615      10.96519221       7.31031309       0.00893327      -0.00780007      -0.01215162
Cu       5.47945362       1.82086318       7.30768460       0.04010613       0.02100096      -0.01665885
Cu       3.65890690       1.84426061       9.12934846      -0.04153045      -0.08822841       0.05894498
Cu       5.48066122       0.01000090       9.13917589      -0.00550944      -0.04016320       0.00503927
Cu       7.31680981      10.96125655       7.31851897      -0.03580563       0.02401159      -0.03552172
Cu       9.13616986       1.82541718       7.31012218       0.01248423       0.01070642       0.00657504
Cu       7.31775919       1.82702590       9.13620177      -0.04757672       0.03278312       0.01564596
Cu       9.13556962      10.96250034       9.14107607       0.03884526      -0.01335907       0.00436694
Cu      10.96068942       3.65518812       7.31044127       0.03112159      -0.00233079      -0.01960699
Cu       1.83278355       5.48514800       7.30550448      -0.03502499      -0.01047637       0.00784786
Cu       0.00098096       5.47993466       9.13372087       0.03019734       0.01365659       0.06113911
Cu       1.82427635       3.65291293       9.13776246       0.00353519       0.02551284      -0.00149581
Cu       3.65419083       3.65147429       7.30733919      -0.00693509       0.01563325      -0.01003436
Cu       5.47774851       5.47030417       7.31111268       0.02942259       0.06078230      -0.01395938
Cu       3.65364860       5.48030562       9.13655804       0.00346763       0.00561250       0.02485588
Cu       5.47915722       3.66048864       9.13365727       0.03903305      -0.01788076       0.04240046
Cu       7.30971888       3.65864504       7.30956361       0.00407157      -0.02402908      -0.00189389
Cu       9.14502676       5.48514504       7.31527456      -0.04020110      -0.01091651      -0.07571634
Cu       7.31086113       5.48606043       9.14226679      -0.01698031      -0.01604349      -0.01421155
Cu       9.13477080       3.66325113       9.13690377       0.00773836      -0.05142910       0.02301470
Cu       0.00290076       7.30749512       7.31015311       0.00816704      -0.00307315      -0.03369157
Cu       1.82256280       9.13822136       7.31022942       0.03726645      -0.01256884      -0.02550664
Cu       0.00577060       9.13408613       9.13967602      -0.04390441       0.01391497       0.00243556
Cu       1.83122517       7.31128692       9.13264189      -0.01852533      -0.01907466       0.03808065
Cu       3.65610164       7.31030103       7.30969717      -0.01079126       0.00124476      -0.00186549
Cu       5.48171148       9.13698831       7.31021648      -0.01333291       0.00916982       0.01259445
Cu       3.65485346       9.13761279       9.13626395       0.00862042       0.01555272      -0.00360885
Cu       5.48536523       7.30225305       9.13393689      -0.01786089       0.01668575       0.01722788
Cu       7.31425994       7.31089973       7.31154636      -0.02827854      -0.03592504      -0.02441262
Cu       9.13799910       9.13310013       7.30760970       0.02643534       0.01716126       0.02587123
Cu       7.30532947       9.13966209       9.13428274       0.02518992      -0.02664306       0.03089250
Cu       9.14007011       7.30323652       9.13015013      -0.00429291       0.05508554       0.05991555
108
Lattice="10.9653 0.0 0.0 0.0 10.9653 0.0 0.0 0.0 10.9653" Properties=species:S:1:pos:R:3:forces:R:3 energy=-405.05265406 stress="0.024780919141221314 -3.494870619947072e-07 9.306202453856204e-06 -3.494870619947072e-07 0.02477695827953003 1.3157725388274497e-07 9.306202453856204e-06 1.3157725388274497e-07 0.02475850799158035" free_energy=-405.06754161 pbc="T T T"
Cu      10.95699346       0.00523845      10.96426597       0.05082985       0.00214387       0.00981177
Cu       1.82877705       1.83243595       0.00507540       0.01983361      -0.05750022      -0.03062485
Cu       0.01289190       1.82790926       1.83355474      -0.07188349      -0.01921617       0.02553134
Cu       1.82641908      10.95938455       1.83932282       0.01784877       0.07425380      -0.02868499
Cu       3.65642589       0.00107054      10.96382550      -0.00215128       0.03803792      -0.01158835
Cu       5.47593562       1.84078077      10.96202028       0.01244476      -0.03892898       0.01377946
Cu       3.65953839       1.82078664       1.83896228      -0.02680185       0.03332480      -0.03942090
Cu       5.49247294      10.95552586       1.82891061      -0.06773751       0.06026730      -0.03665722
Cu       7.30434577       0.00133239      10.96162377       0.00081594      -0.02289809      -0.00920856
Cu       9.13108811       1.81540652       0.00761529       0.03656581       0.09526177      -0.01488517
Cu       7.30636032       1.81845575       1.82885228       0.02098533       0.05150115      -0.02934854
Cu       9.13340529      10.96014094       1.82257990       0.03852922       0.01447115       0.07032951
Cu      10.96461039       3.65275240       0.01548092      -0.02121783       0.03196125      -0.08595322
Cu       1.83085059       5.49076081       0.01159679      -0.05654298      -0.01994349      -0.14993369
Cu       0.01272457       5.47810368       1.83933653      -0.10282399       0.07201178      -0.09208553
Cu       1.82823756       3.66876218       1.81848930       0.00619074      -0.14325699       0.08009272
Cu       3.64484478       3.66596263       0.00778887       0.08184084      -0.03679906      -0.03927048
Cu       5.50009272       5.48164317       0.01126356      -0.13037519       0.02026238      -0.02271484
Cu       3.63612210       5.47366350       1.82718972       0.18703782       0.10069299       0.00259325
Cu       5.48332864       3.65648685       1.83322469      -0.01720482       0.01370966      -0.01360572
Cu       7.30566994       3.65970714       0.00667074       0.01404730      -0.04935752      -0.03269435
Cu       9.13233278       5.47803262      10.96036847       0.07836616       0.06640809       0.05129648
Cu       7.31142859       5.48472540       1.82753052      -0.00952707       0.02914519       0.00782160
Cu       9.14096674       3.66505898       1.82752427      -0.02070571      -0.09026808      -0.01842163
Cu       0.00410837       7.31538399       0.00092898      -0.01754910      -0.07160795      -0.01522081
Cu       1.83140971       9.15370645       0.00457242       0.00077178      -0.05735227      -0.01283095
Cu       0.00957490       9.14943689       1.82589515      -0.04662195      -0.03438138       0.00010322
Cu       1.83326449       7.29730879       1.80898863      -0.00212681       0.12296145       0.10320162
Cu       3.65995090       7.31809834      10.95109621       0.00944414      -0.06417868       0.06381842
Cu       5.48321789       9.12831125      10.96482641      -0.02316191       0.08732412      -0.06050527
Cu       3.66820755       9.13652042       1.83406748      -0.09533912       0.00730837      -0.02286484
Cu       5.48106815       7.32310301       1.83048534      -0.03483936      -0.09741665      -0.00232960
Cu       7.30417493       7.31890232       0.00502880       0.05053992      -0.03597370      -0.05927816
Cu       9.14601232       9.12889318       0.00826049      -0.04251987       0.04105812      -0.09649885
Cu       7.30339969       9.14067605       1.82101527       0.05099248       0.01515467       0.04930737
Cu       9.13217959       7.31990553       1.82153458       0.04312073      -0.07520969       0.01929383
Cu      10.96517269       0.00105322       3.67382321      -0.03797361       0.01699134      -0.11672501
Cu       1.83623324       1.84400369       3.67330444      -0.06601516      -0.02485698      -0.09301079
Cu      10.96073328       1.81834872       5.48700355       0.00212631       0.06915848      -0.00224180
Cu       1.81782743      10.96306604       5.47592399       0.07293259      -0.00404133       0.04404626
Cu       3.64894657       0.00186279       3.66151554       0.04973905      -0.03694471      -0.00962054
Cu       5.49051738       1.82359683       3.64947279      -0.03363963      -0.01023584       0.06460795
Cu       3.66057921       1.82446934       5.46473906       0.00538882      -0.01201454       0.10582479
Cu       5.48828156      10.95066681       5.49149450      -0.04424779       0.07373675      -0.02292481
Cu       7.30588245       0.01045092       3.66179680       0.04440213      -0.12817112      -0.01696889
Cu       9.12992567       1.82992677       3.65641218       0.06235569      -0.02242629      -0.02765303
Cu       7.31670893       1.81474893       5.48811554      -0.06424255       0.06152978       0.01183398
Cu       9.13182092      10.95364213       5.48013741       0.03294228       0.00523381       0.02331832
Cu      10.96199605       3.66429832       3.65634178       0.01965284      -0.08555815       0.02746815
Cu       1.83422626       5.46432951       3.64587310      -0.04230791       0.10580742       0.06941924
Cu       0.00327621       5.47764072       5.47946677      -0.02567143       0.06034171      -0.02107371
Cu       1.82965987       3.66667296       5.48949827      -0.03896657      -0.06817887      -0.02127206
Cu       3.66497553       3.66004159       3.66035475      -0.00498111      -0.01302240      -0.03762773
Cu       5.48919804       5.50276946       3.64732282      -0.03756259      -0.08199246       0.02004910
Cu       3.65517376       5.48126739       5.48162266       0.00675058       0.00426145      -0.01033636
Cu       5.47655099       3.65601535       5.48080838       0.07192901      -0.02451137      -0.02187536
Cu       7.31078909       3.65106331       3.65038883      -0.03018206       0.01540046       0.04224910
Cu       9.13333851       5.46998618       3.63974460       0.00886975       0.11667411       0.10009067
Cu       7.30324069       5.48023851       5.48178780       0.07365066       0.02086991       0.00362605