120
Lattice="16.1826525 0.0 0.0 -6.473061 11.21167053 0.0 0.0 0.0 15.3984" Properties=species:S:1:pos:R:3:forces:R:3 energy=-180.47377686 stress="0.006423181930380095 0.0010198220463260427 7.502293969311676e-09 0.0010198220463260427 0.009270470581816145 -1.222087486847942e-08 7.502293969311676e-09 -1.222087486847942e-08 0.003625399038153285" free_energy=-180.46956868 pbc="T T T"
Mg       0.00000000       0.00000000       0.00000000       0.00083775      -0.00065034       0.00000134
Mg       0.00000003       1.86861179       2.56640005       0.00022008       0.00322053       0.00001178
Mg       3.23653050       0.00000000       0.00000000      -0.00388678       0.00359474       0.00000012
Mg       3.23653053       1.86861179       2.56640005      -0.00346659       0.00378373       0.00001012
Mg       6.47306100       0.00000000       0.00000000      -0.00052478      -0.00021249      -0.00000064
Mg       6.47306103       1.86861179       2.56640005      -0.00221373      -0.00285500       0.00001066
Mg       9.70959150       0.00000000       0.00000000       0.00203348      -0.00117006       0.00000006
Mg       9.70959153       1.86861179       2.56640005      -0.00258418       0.00301484       0.00001091
Mg      12.94612200       0.00000000       0.00000000       0.00538751      -0.00504761       0.00000249
Mg      12.94612203       1.86861179       2.56640005       0.00061110       0.00218236       0.00001036
Mg      -1.61826525       2.80291763       0.00000000       0.00083205      -0.00064671       0.00000108
Mg      -1.61826522       4.67152942       2.56640005       0.00022025       0.00322263       0.00001292
Mg       1.61826525       2.80291763       0.00000000      -0.00388837       0.00359858       0.00000148
Mg       1.61826528       4.67152942       2.56640005      -0.00347015       0.00378490       0.00001134
Mg       4.85479575       2.80291763       0.00000000      -0.00052031      -0.00021746      -0.00000013
Mg       4.85479578       4.67152942       2.56640005      -0.00221647      -0.00285569       0.00001098
Mg       8.09132625       2.80291763       0.00000000       0.00203923      -0.00117580      -0.00000076
Mg       8.09132628       4.67152942       2.56640005      -0.00257877       0.00301322       0.00001139
Mg      11.32785675       2.80291763       0.00000000       0.00538675      -0.00504716      -0.00000067
Mg      11.32785678       4.67152942       2.56640005       0.00061593       0.00217907       0.00001150
Mg      -3.23653050       5.60583526       0.00000000       0.00083382      -0.00064871       0.00000315
Mg      -3.23653047       7.47444706       2.56640005       0.00022177       0.00321889       0.00001199
Mg       0.00000000       5.60583526       0.00000000      -0.00389133       0.00360129       0.00000138
Mg       0.00000003       7.47444706       2.56640005      -0.00347262       0.00378742       0.00001083
Mg       3.23653050       5.60583526       0.00000000      -0.00052487      -0.00021156       0.00000181
Mg       3.23653053       7.47444706       2.56640005      -0.00222240      -0.00285104       0.00001118
Mg       6.47306100       5.60583526       0.00000000       0.00204120      -0.00117612       0.00000110
Mg       6.47306103       7.47444706       2.56640005      -0.00258085       0.00301189       0.00001109
Mg       9.70959150       5.60583526       0.00000000       0.00539255      -0.00505113       0.00000144
Mg       9.70959153       7.47444706       2.56640005       0.00061908       0.00217489       0.00001134
Mg      -4.85479575       8.40875290       0.00000000       0.00083768      -0.00065241       0.00000142
Mg      -4.85479572      10.27736469       2.56640005       0.00022617       0.00321555       0.00001063
Mg      -1.61826525       8.40875290       0.00000000      -0.00388905       0.00359688       0.00000128
Mg      -1.61826522      10.27736469       2.56640005      -0.00346730       0.00378299       0.00000936
Mg       1.61826525       8.40875290       0.00000000      -0.00052880      -0.00020950       0.00000081
Mg       1.61826528      10.27736469       2.56640005      -0.00221997      -0.00285129       0.00001091
Mg       4.85479575       8.40875290       0.00000000       0.00203431      -0.00117136       0.00000113
Mg       4.85479578      10.27736469       2.56640005      -0.00258603       0.00301605       0.00001131
Mg       8.09132625       8.40875290       0.00000000       0.00539277      -0.00505074       0.00000233
Mg       8.09132628      10.27736469       2.56640005       0.00061526       0.00217940       0.00001180
Mg       0.00000000       0.00000000       5.13279995       0.00083487      -0.00065274       0.00001080
Mg       0.00000003       1.86861179       7.69920000       0.00022140       0.00321930      -0.00000210
Mg       3.23653050       0.00000000       5.13279995      -0.00388593       0.00359424       0.00001026
Mg       3.23653053       1.86861179       7.69920000      -0.00346589       0.00378273      -0.00000115
Mg       6.47306100       0.00000000       5.13279995      -0.00052283      -0.00021524       0.00001082
Mg       6.47306103       1.86861179       7.69920000      -0.00221584      -0.00285454       0.00000034
Mg       9.70959150       0.00000000       5.13279995       0.00203451      -0.00117038       0.00001106
Mg       9.70959153       1.86861179       7.69920000      -0.00258361       0.00301453      -0.00000122
Mg      12.94612200       0.00000000       5.13279995       0.00538781      -0.00504660       0.00001088
Mg      12.94612203       1.86861179       7.69920000       0.00061128       0.00218091      -0.00000290
Mg      -1.61826525       2.80291763       5.13279995       0.00083137      -0.00064811       0.00001006
Mg      -1.61826522       4.67152942       7.69920000       0.00021840       0.00322414      -0.00000131
Mg       1.61826525       2.80291763       5.13279995      -0.00388996       0.00359884       0.00000974
Mg       1.61826528       4.67152942       7.69920000      -0.00346945       0.00378656      -0.00000034
Mg       4.85479575       2.80291763       5.13279995      -0.00052186      -0.00021558       0.00001021
Mg       4.85479578       4.67152942       7.69920000      -0.00221559      -0.00285568      -0.00000056
Mg       8.09132625       2.80291763       5.13279995       0.00203893      -0.00117259       0.00000992
Mg       8.09132628       4.67152942       7.69920000      -0.00258137       0.00301196      -0.00000163
Mg      11.32785675       2.80291763       5.13279995       0.00538897      -0.00504675       0.00001019
Mg      11.32785678       4.67152942       7.69920000       0.00061288       0.00217971      -0.00000242
Mg      -3.23653050       5.60583526       5.13279995       0.00083499      -0.00064842       0.00001127
Mg      -3.23653047       7.47444706       7.69920000       0.00022199       0.00321811      -0.00000164
Mg       0.00000000       5.60583526       5.13279995      -0.00389266       0.00360130       0.00001183
Mg       0.00000003       7.47444706       7.69920000      -0.00347114       0.00378614      -0.00000156
Mg       3.23653050       5.60583526       5.13279995      -0.00052553      -0.00020922       0.00001196
Mg       3.23653053       7.47444706       7.69920000      -0.00222033      -0.00284984      -0.00000116
Mg       6.47306100       5.60583526       5.13279995       0.00203800      -0.00117364       0.00001007
Mg       6.47306103       7.47444706       7.69920000      -0.00258161       0.00301226      -0.00000229
Mg       9.70959150       5.60583526       5.13279995       0.00539203      -0.00505094       0.00001034
Mg       9.70959153       7.47444706       7.69920000       0.00061633       0.00217425      -0.00000310
Mg      -4.85479575       8.40875290       5.13279995       0.00083884      -0.00065335       0.00001152
Mg      -4.85479572      10.27736469       7.69920000       0.00022348       0.00321613       0.00000039
Mg      -1.61826525       8.40875290       5.13279995      -0.00389015       0.00359550       0.00001102
Mg      -1.61826522      10.27736469       7.69920000      -0.00346812       0.00378254       0.00000181
Mg       1.61826525       8.40875290       5.13279995      -0.00052609      -0.00021142       0.00001137
Mg       1.61826528      10.27736469       7.69920000      -0.00222004      -0.00285119      -0.00000156
Mg       4.85479575       8.40875290       5.13279995       0.00203574      -0.00117037       0.00001076
Mg       4.85479578      10.27736469       7.69920000      -0.00258669       0.00301525      -0.00000242
Mg       8.09132625       8.40875290       5.13279995       0.00539206      -0.00505218       0.00001004
Mg       8.09132628      10.27736469       7.69920000       0.00061332       0.00217602      -0.00000115
Mg       0.00000000       0.00000000      10.26560005       0.00083727      -0.00065148      -0.00001094
Mg       0.00000003       1.86861179      12.83199995       0.00022196       0.00322217      -0.00001154
Mg       3.23653050       0.00000000      10.26560005      -0.00388687       0.00359648      -0.00001073
Mg       3.23653053       1.86861179      12.83199995      -0.00346563       0.00378316      -0.00001119
Mg       6.47306100       0.00000000      10.26560005      -0.00052349      -0.00021227      -0.00001096
Mg       6.47306103       1.86861179      12.83199995      -0.00221481      -0.00285602      -0.00000913
Mg       9.70959150       0.00000000      10.26560005       0.00203327      -0.00117129      -0.00001111
Mg       9.70959153       1.86861179      12.83199995      -0.00258401       0.00301545      -0.00001171
Mg      12.94612200       0.00000000      10.26560005       0.00538546      -0.00504708      -0.00001123
Mg      12.94612203       1.86861179      12.83199995       0.00061126       0.00218004      -0.00001104
Mg      -1.61826525       2.80291763      10.26560005       0.00083174      -0.00064906      -0.00001213
Mg      -1.61826522       4.67152942      12.83199995       0.00021985       0.00322326      -0.00000997
Mg       1.61826525       2.80291763      10.26560005      -0.00388855       0.00359799      -0.00001194
Mg       1.61826528       4.67152942      12.83199995      -0.00347036       0.00378612      -0.00001085
Mg       4.85479575       2.80291763      10.26560005      -0.00051946      -0.00021574      -0.00001192
Mg       4.85479578       4.67152942      12.83199995      -0.00221593      -0.00285585      -0.00001053
Mg       8.09132625       2.80291763      10.26560005       0.00203872      -0.00117390      -0.00001226
Mg       8.09132628       4.67152942      12.83199995      -0.00258053       0.00301013      -0.00001082
Mg      11.32785675       2.80291763      10.26560005       0.00538655      -0.00504472      -0.00001207
Mg      11.32785678       4.67152942      12.83199995       0.00061491       0.00217842      -0.00001215
Mg      -3.23653050       5.60583526      10.26560005       0.00083431      -0.00064913      -0.00001281
Mg      -3.23653047       7.47444706      12.83199995       0.00022064       0.00321991      -0.00001108
Mg       0.00000000       5.60583526      10.26560005      -0.00389280       0.00360141      -0.00001100
Mg       0.00000003       7.47444706      12.83199995      -0.00347141       0.00378746      -0.00001094
Mg       3.23653050       5.60583526      10.26560005      -0.00052570      -0.00021275      -0.00001219
Mg       3.23653053       7.47444706      12.83199995      -0.00222188      -0.00285141      -0.00001001
Mg       6.47306100       5.60583526      10.26560005       0.00203892      -0.00117678      -0.00001256
Mg       6.47306103       7.47444706      12.83199995      -0.00258195       0.00301337      -0.00001082
Mg       9.70959150       5.60583526      10.26560005       0.00539231      -0.00505005      -0.00001087
Mg       9.70959153       7.47444706      12.83199995       0.00061651       0.00217500      -0.00001096
Mg      -4.85479575       8.40875290      10.26560005       0.00083756      -0.00065243      -0.00001306
Mg      -4.85479572      10.27736469      12.83199995       0.00022628       0.00321729      -0.00001104
Mg      -1.61826525       8.40875290      10.26560005      -0.00389068       0.00359682      -0.00001070
Mg      -1.61826522      10.27736469      12.83199995      -0.00346777       0.00378499      -0.00001093
Mg       1.61826525       8.40875290      10.26560005      -0.00052737      -0.00021037      -0.00001234
Mg       1.61826528      10.27736469      12.83199995      -0.00222148      -0.00285272      -0.00000982
Mg       4.85479575       8.40875290      10.26560005       0.00203510      -0.00117162      -0.00001166
Mg       4.85479578      10.27736469      12.83199995      -0.00258723       0.00301733      -0.00001062
Mg       8.09132625       8.40875290      10.26560005       0.00539087      -0.00504972      -0.00001255
Mg       8.09132628      10.27736469      12.83199995       0.00061655       0.00217843      -0.00001025
120
Lattice="16.1826525 0.0 0.0 -6.473061 11.21167053 0.0 0.0 0.0 15.3984" Properties=species:S:1:pos:R:3:forces:R:3 energy=-180.45981312 stress="0.006433254902230065 0.0009921865787844606 6.41677070213806e-07 0.0009921865787844606 0.009322193936734793 -1.1176046240806562e-07 6.41677070213806e-07 -1.1176046240806562e-07 0.003663064498512997" free_energy=-180.45563439 pbc="T T T"
Mg       9.70283793      11.20958527      15.39060364       0.01795665       0.00665386       0.02876387
Mg      -0.01042946       1.86709642       2.56427769       0.02751486      -0.00204241       0.01591399
Mg       3.23098202       0.00160708       0.00249824       0.00539976      -0.00297441      -0.00061354
Mg       3.24699061       1.87002065       2.57206404      -0.03148891       0.01118376      -0.01519579
Mg       6.47560964       0.00935468      15.39690112      -0.01167122      -0.02200076       0.00638357
Mg       6.47137088       1.87398756       2.56908399       0.01075949      -0.01818141       0.00493403
Mg       3.23335469      11.20952540      15.39625808       0.01319321       0.00429558       0.00546938
Mg       9.70916671       1.86221251       2.56866115       0.00171392       0.00315216       0.00221112
Mg      12.94629509       0.00241847      15.39382144      -0.00440717      -0.00543135       0.01423844
Mg      12.94115742       1.86838633       2.56227698      -0.00208761       0.01023638       0.01035089
Mg      -1.62015461       2.80740096       0.00477751       0.00817724      -0.00957682      -0.02929753
Mg      -1.61838060       4.66932465       2.55708356      -0.00439799       0.00724250       0.03183106
Mg       1.62118787       2.79390311      15.39142360      -0.01295592       0.01765871       0.03274474
Mg       1.61854586       4.66416369       2.56416374       0.00024321       0.01313526      -0.00140585
Mg       4.86449411       2.80189020       0.00382773      -0.02795698       0.00242935      -0.00562958
Mg       4.86913960       4.67574165       2.56611857      -0.02829860      -0.00204041      -0.00351674
Mg       8.08671795       2.80760658       0.00911031       0.02133388      -0.00551491      -0.01796393
Mg       8.10083586       4.66779986       2.56199211      -0.02003508       0.02130862       0.00845257
Mg      11.33114358       2.80973186      15.39002204      -0.00732346      -0.01806437       0.02145524
Mg      11.31774606       4.66338493       2.55996213       0.02232710       0.00682223       0.01500108
Mg      12.94012526       5.60740983       0.00270427       0.01291035       0.00249015      -0.01543499
Mg      -3.23756227       7.47064966       2.56449743      -0.00371407       0.01128723      -0.00169739
Mg      -0.00610264       5.61271306       0.00242417       0.01864280      -0.01173409      -0.00915332
Mg      -0.00530733       7.47606030       2.55995243       0.01183740      -0.00747923       0.02925320
Mg       3.24050535       5.60432774       0.00079564      -0.01446116      -0.00184226      -0.00127973
Mg       3.23981160       7.46991721       2.55472452      -0.02010332       0.00430937       0.03425062
Mg       6.46775419       5.60301306      15.39286320       0.02833615       0.00972723       0.01059052
Mg       6.47416563       7.47538805       2.56214794       0.01093247       0.00195670      -0.00261440
Mg       9.71308381       5.60442327      15.39482742      -0.01334667       0.00410706      -0.00549251
Mg       9.72097412       7.46867720       2.56634954      -0.03190936       0.01769468      -0.01379386
Mg      11.32294858       8.40438281      15.39155064       0.00732996       0.01999719       0.02351889
Mg      -4.85675612      10.28020438       2.57421351      -0.00710387      -0.00059541      -0.02675938
Mg      -1.61868872       8.41216820       0.00121031      -0.01140097       0.00515813      -0.00606855
Mg      -1.62191978      10.28082607       2.56459828       0.00781996       0.00449914       0.00209192
Mg       1.61238357       8.40779419       0.00618107       0.00715364       0.00644502      -0.02986415
Mg       1.61469947      10.28153117       2.56282069       0.00500783      -0.01379377       0.01687420
Mg       4.84453504       8.40508433       0.00335931       0.02169144       0.01096897      -0.01905685
Mg       4.85858715      10.27759184       2.56617446      -0.01553219       0.00537865       0.00272307
Mg       8.08665817       8.41047647      15.38736936       0.00320106      -0.01219282       0.03476491
Mg       8.09091359      10.28073638       2.56946279       0.00835030      -0.01050377      -0.01319091
Mg       9.70834197      11.20348612       5.14766372       0.00255813       0.02539112      -0.03116101
Mg       0.01743593       1.86409954       7.70214402      -0.03008178       0.00426672      -0.00041463
Mg      -3.24887790      11.20925419       5.13012478       0.02925472       0.00660911       0.01728225
Mg       3.24560405       1.86604421       7.69217494      -0.00302891       0.01304321       0.01558368
Mg       0.00349070      11.21003878       5.13851276      -0.02402554       0.00989648      -0.02234277
Mg       6.47823084       1.87206398       7.70441066      -0.01978244       0.00429176      -0.00979518
Mg       3.23396319      11.20644298       5.14091829       0.01337426       0.01064253      -0.02357099
Mg       9.70079477       1.87341857       7.69804866       0.02184460      -0.00616013       0.02232430
Mg      12.95583577       0.00712647       5.12950608      -0.02646760      -0.01882007       0.00351627
Mg      12.94963163       1.86605766       7.69689193      -0.00694821       0.00539206       0.01512843
Mg      14.55567684       2.80593402       5.14081482       0.02459479      -0.00511321      -0.01981545
Mg      -1.62060817       4.67528791       7.70542480      -0.00359003      -0.01736476      -0.01630592
Mg       1.61553271       2.80695148       5.13523274      -0.00186327      -0.01357072      -0.01726457
Mg       1.61296556       4.67118702       7.69466548       0.02613776       0.00214093       0.01884468
Mg       4.85602877       2.81044335       5.12431836      -0.00034675      -0.01732883       0.03079290
Mg       4.85988798       4.67547313       7.69971970      -0.01767046      -0.00409933       0.00272006
Mg       8.08736632       2.80660549       5.13118974       0.01026962      -0.00916222       0.00394272
Mg       8.08527591       4.67557460       7.70088320       0.00633718       0.00262526      -0.00009720
Mg      11.32800673       2.81009736       5.14262890      -0.00450602      -0.02595431      -0.02345303
Mg      11.32170129       4.67385742       7.70473034       0.00540109      -0.01013054       0.00391297
Mg      12.94154335       5.60020409       5.12637989       0.00901365       0.01187938       0.00455821
Mg      -3.24221928       7.46328382       7.69484579       0.00868208       0.02656108      -0.01044632
Mg      -0.00178569       5.59975394       5.13991986      -0.01498163       0.01899992      -0.02847493
Mg      -0.00384302       7.46771557       7.71015519       0.00594927       0.02934247      -0.04029726
Mg       3.23559278       5.60667771       5.13464853       0.00146862      -0.00296354      -0.01383581
Mg       3.23925935       7.47949298       7.69911115      -0.01053770      -0.01309606       0.00228189
Mg       6.47199142       5.60419063       5.12957937       0.00947267       0.01162377       0.00786369
Mg       6.47594329       7.48349521       7.70011236      -0.01946934      -0.02318420      -0.01126860
Mg       9.70963827       5.60394890       5.13464329      -0.00169192      -0.00339321      -0.00630823
Mg       9.70087620       7.47053587       7.69739700       0.01218135       0.00841343       0.00626371
Mg      11.31845175       8.40704278       5.13134819       0.01764656      -0.00385318       0.00546165
Mg      -4.84660998      10.26597520       7.70284064      -0.01072243       0.02191173       0.01159133
Mg      -1.62541776       8.41287420       5.12393879       0.00961338      -0.01175966       0.02855209
Mg      -1.61809892      10.27839179       7.70279938      -0.01000510      -0.01192167      -0.02514410
Mg       1.61837545       8.40455301       5.13650126      -0.01159420       0.00138743      -0.01602298
Mg       1.61118951      10.28832141       7.69408835       0.01861957      -0.03163477       0.02385168
Mg       4.85074704       8.40437889       5.12604267       0.01295422       0.00430805       0.00445304
Mg       4.85842487      10.26998999       7.69322804      -0.01505286       0.02486621       0.00654076
Mg       8.08860184       8.40641818       5.12915546       0.00069001      -0.00384017      -0.00172945
Mg       8.09164527      10.27654198       7.69460666       0.00922153       0.00838677       0.01028401
Mg      16.16981338       0.00483414      10.27415094       0.04370134      -0.02308148      -0.02539502
Mg       0.00340616       1.86985405      12.82580225      -0.01043837       0.01161339       0.01671503
Mg      -3.22582173      11.20904913      10.26717592      -0.03362631       0.01139617       0.00071445
Mg       3.23160712       1.87645043      12.83569295       0.02505166      -0.01727259      -0.00845864
Mg      -0.00764873      11.19855960      10.25567440       0.02835723       0.03406899       0.03433801
Mg       6.47780876       1.86778538      12.83932050      -0.01514858      -0.00292622      -0.02428337
Mg       3.24463804      11.20309775      10.27300468      -0.02436879       0.01857765      -0.02286421
Mg       9.71305255       1.87378340      12.84291187      -0.01353483      -0.00998006      -0.01780506
Mg       6.47223242      11.20699280      10.26273056       0.00987791      -0.00011321       0.00879462
Mg      12.94119814       1.87243609      12.83222369       0.02562859       0.00089209      -0.00025759
Mg      14.56322841       2.80098698      10.26492884       0.00393139       0.00593031      -0.00014693
Mg      -1.60669433       4.67603910      12.83363495      -0.02126431       0.00078352      -0.00490266
Mg       1.62170979       2.80421135      10.26578083       0.00059085      -0.00105317      -0.00565204
Mg       1.62633178       4.66945930      12.84133261      -0.01930579       0.02842435      -0.01974235
Mg       4.85759936       2.80620635      10.27274368      -0.00069119      -0.01084542      -0.00818891
Mg       4.85745171       4.67600423      12.84029830      -0.00253538      -0.01436024      -0.00897906
Mg       8.09094013       2.80942601      10.27327677       0.01199005      -0.03512540      -0.01291437
Mg       8.09730577       4.66613381      12.82433139      -0.01555889       0.01665212       0.03379494
Mg      11.33221564       2.79073570      10.27394983      -0.00953412       0.02306672      -0.02687567
Mg      11.33122164       4.67664475      12.82557743       0.00987174       0.00090867       0.00405376
Mg      -3.23147093       5.61022396      10.26014409      -0.00866398      -0.02040547       0.02300359
Mg      -3.23966022       7.47601310      12.83558762       0.01546388      -0.00290706      -0.01370913
Mg       0.00154014       5.60115406      10.25904464       0.01421097       0.00083666       0.03475291
Mg      -0.00253136       7.48476785      12.82942780       0.01127942      -0.02090907       0.00404997
Mg       3.24645331       5.60298649      10.27187398      -0.02230317       0.00297271      -0.01913032
Mg       3.23712948       7.48281904      12.82298542      -0.01247299      -0.00733144       0.02838222
Mg       6.47457097       5.60174727      10.27299575      -0.00045852       0.01486669      -0.01692550
Mg       6.46646777       7.47280197      12.83068138       0.01435452       0.01350966      -0.00095343
Mg       9.70968656       5.60710544      10.27351021       0.00844953      -0.00065657      -0.02260144
Mg       9.70680501       7.47833000      12.83205461      -0.00408099       0.00372023      -0.01841160
Mg      -4.84850749       8.40429850      10.25969215      -0.01667474       0.00929773       0.01903567
Mg      -4.84556044      10.27632705      12.83462538      -0.01525384       0.00959166      -0.01668244
Mg      -1.61017198       8.40235272      10.26084272      -0.02418261       0.00623724       0.01194626
Mg      -1.62180818      10.27621818      12.83314482       0.00605543       0.01190053       0.00168393
Mg       1.62134717       8.40608351      10.26461163      -0.00036715       0.00629372      -0.00570884
Mg       1.61330514      10.28505590      12.83083321       0.00692457      -0.01303621       0.00110995
Mg       4.85485592       8.40632198      10.26427225       0.00283929       0.00031215      -0.00033747
Mg       4.86359105      10.27849931      12.83254782      -0.01698465       0.00042715       0.00530428
Mg       8.08415313       8.41063814      10.25490371       0.02251111      -0.00162889       0.03816538
Mg       8.10103600      10.28440203      12.84117816      -0.02445879      -0.01509829      -0.03592853
120
Lattice="16.1826525 0.0 0.0 -6.473061 11.21167053 0.0 0.0 0.0 15.3984" Properties=species:S:1:pos:R:3:forces:R:3 energy=-180.41781517 stress="0.00637384142136647 0.000961089732560901 -7.330652468349887e-06 0.000961089732560901 0.009302943318794433 -4.223716606612963e-06 -7.330652468349887e-06 -4.223716606612963e-06 0.003603873477517667" free_energy=-180.41368213 pbc="T T T"
Mg       9.69609164      11.20750226      15.38281882       0.04006260       0.01102298       0.06061452
Mg      -0.02084805       1.86557982       2.56216164       0.05075331      -0.00562633       0.03209461
Mg       3.22543580       0.00321248       0.00499616       0.01818660      -0.00685804       0.00135299
Mg       3.25743810       1.87143366       2.57772203      -0.06613071       0.01439819      -0.03346951
Mg       6.47815371       0.01870017      15.39540486      -0.02587179      -0.04423194       0.01595200
Mg       6.46968507       1.87935582       2.57177009       0.02294127      -0.03199357       0.01027855
Mg       3.23018408      11.20738162      15.39411832       0.02254442       0.00805421       0.01010137
Mg       9.70874266       1.85581412       2.57092333       0.00754909       0.00406284       0.00162375
Mg      12.94646643       0.00483436      15.38924858      -0.01226409      -0.00645438       0.02507428
Mg      12.93619207       1.86816467       2.55815806      -0.00309275       0.01567675       0.01991240
Mg      -1.62204070       2.81188002       0.00954331       0.01659747      -0.02071120      -0.05848426
Mg      -1.61849741       4.66712234       2.54777984      -0.00778149       0.00920568       0.06497330
Mg       1.62410538       2.78489521      15.38446014      -0.02202112       0.03468995       0.06463610
Mg       1.61882656       4.65680278       2.56192697       0.00339360       0.02332121      -0.00029327
Mg       4.87418156       2.80086343       0.00765331      -0.05958668       0.00143399      -0.01074175
Mg       4.88347215       4.67995264       2.56583585      -0.05704865      -0.00575732      -0.00653553
Mg       8.08211816       2.81229283       0.01821369       0.04416127      -0.01228423      -0.03667253
Mg       8.11033753       4.66407837       2.55758770      -0.03517665       0.03906409       0.01634079
Mg      11.33442746       2.81653858      15.38165270      -0.02047537      -0.03203962       0.04433965
Mg      11.30764442       4.65524290       2.55353022       0.04451322       0.01141378       0.03114990
Mg      12.93413363       5.60898507       0.00540237       0.02354796       0.00103351      -0.02681279
Mg      -3.23859550       7.46685642       2.56259403      -0.00816937       0.02080952      -0.00534084
Mg      -0.01219784       5.61958582       0.00484480       0.04125713      -0.02792243      -0.01809622
Mg      -0.01061006       7.47767030       2.55351636       0.02534158      -0.01490570       0.06293874
Mg       3.24447443       5.60281899       0.00159065      -0.02898485      -0.00851878      -0.00275660
Mg       3.24308486       7.46538881       2.54306254      -0.03712421       0.01282805       0.07423227
Mg       6.46245864       5.60019434      15.38733055       0.05806935       0.02416667       0.02063763
Mg       6.47527450       7.47632950       2.55789475       0.02355784       0.00023605      -0.00542972
Mg       9.71657088       5.60301250      15.39125268      -0.03240721       0.01008628      -0.01305540
Mg       9.73234408       7.46291406       2.56629365      -0.06685168       0.02720420      -0.02705702
Mg      11.31804336       8.40002024      15.38471051       0.01266281       0.03730733       0.05032174
Mg      -4.85871927      10.28304351       2.58201649      -0.01507527      -0.00552012      -0.05463798
Mg      -1.61911672       8.41558518       0.00241816      -0.02252594       0.00878451      -0.01252682
Mg      -1.62557107      10.28428879       2.56279729       0.01329407       0.00685762       0.00670772