120
Lattice="15.8637825 0.0 0.0 -6.345513 10.99075092 0.0 0.0 0.0 15.3984" Properties=species:S:1:pos:R:3:forces:R:3 energy=-180.40597475 stress="-0.004120068945147849 0.00022683339357338353 -1.204611261295469e-08 0.00022683339357338353 -0.001367646282908487 2.7131840170214526e-08 -1.204611261295469e-08 2.7131840170214526e-08 -0.0021496558027917522" free_energy=-180.40542421 pbc="T T T"
Mg       0.00000000       0.00000000       0.00000000       0.00001960      -0.00158413      -0.00000198
Mg       0.00000003       1.83179186       2.56640005      -0.00227766       0.00228814      -0.00000547
Mg       3.17275650       0.00000000       0.00000000       0.00072540       0.00068228      -0.00000356
Mg       3.17275653       1.83179186       2.56640005       0.00249974       0.00440117      -0.00000735
Mg       6.34551300       0.00000000       0.00000000       0.00392460      -0.00552830      -0.00000342
Mg       6.34551303       1.83179186       2.56640005      -0.00073407       0.00121959      -0.00001124
Mg       9.51826950       0.00000000       0.00000000      -0.00387308       0.00248790      -0.00000429
Mg       9.51826953       1.83179186       2.56640005       0.00352284       0.00374927      -0.00001257
Mg      12.69102600       0.00000000       0.00000000      -0.00080455      -0.00371164      -0.00000443
Mg      12.69102603       1.83179186       2.56640005       0.00288645       0.00332276      -0.00000575
Mg      -1.58637825       2.74768773       0.00000000       0.00001962      -0.00158071       0.00000014
Mg      -1.58637822       4.57947959       2.56640005      -0.00227749       0.00228775      -0.00000775
Mg       1.58637825       2.74768773       0.00000000       0.00072588       0.00068188      -0.00000063
Mg       1.58637828       4.57947959       2.56640005       0.00249803       0.00440324      -0.00000563
Mg       4.75913475       2.74768773       0.00000000       0.00392482      -0.00553137      -0.00000288
Mg       4.75913478       4.57947959       2.56640005      -0.00073167       0.00121479      -0.00000981
Mg       7.93189125       2.74768773       0.00000000      -0.00387074       0.00249081      -0.00000476
Mg       7.93189128       4.57947959       2.56640005       0.00352412       0.00374843      -0.00000859
Mg      11.10464775       2.74768773       0.00000000      -0.00080530      -0.00371079      -0.00000512
Mg      11.10464778       4.57947959       2.56640005       0.00288665       0.00332532      -0.00000738
Mg      -3.17275650       5.49537546       0.00000000       0.00001921      -0.00158119       0.00000050
Mg      -3.17275647       7.32716732       2.56640005      -0.00227562       0.00228491      -0.00000195
Mg       0.00000000       5.49537546       0.00000000       0.00072688       0.00068309      -0.00000045
Mg       0.00000003       7.32716732       2.56640005       0.00249734       0.00440350      -0.00000729
Mg       3.17275650       5.49537546       0.00000000       0.00392725      -0.00553412      -0.00000142
Mg       3.17275653       7.32716732       2.56640005      -0.00073297       0.00121510      -0.00000897
Mg       6.34551300       5.49537546       0.00000000      -0.00387439       0.00248632      -0.00000522
Mg       6.34551303       7.32716732       2.56640005       0.00352373       0.00374644      -0.00001241
Mg       9.51826950       5.49537546       0.00000000      -0.00080735      -0.00370975      -0.00000555
Mg       9.51826953       7.32716732       2.56640005       0.00288904       0.00332666      -0.00000496
Mg      -4.75913475       8.24306319       0.00000000       0.00002048      -0.00157807      -0.00000075
Mg      -4.75913472      10.07485505       2.56640005      -0.00227637       0.00228817      -0.00000597
Mg      -1.58637825       8.24306319       0.00000000       0.00072719       0.00068537      -0.00000287
Mg      -1.58637822      10.07485505       2.56640005       0.00249833       0.00440472      -0.00000687
Mg       1.58637825       8.24306319       0.00000000       0.00392803      -0.00552993      -0.00000231
Mg       1.58637828      10.07485505       2.56640005      -0.00072974       0.00121969      -0.00000800
Mg       4.75913475       8.24306319       0.00000000      -0.00387098       0.00248744      -0.00000293
Mg       4.75913478      10.07485505       2.56640005       0.00352256       0.00374852      -0.00001034
Mg       7.93189125       8.24306319       0.00000000      -0.00080146      -0.00371329       0.00000088
Mg       7.93189128      10.07485505       2.56640005       0.00288734       0.00332305      -0.00000707
Mg       0.00000000       0.00000000       5.13279995       0.00002297      -0.00158001      -0.00000380
Mg       0.00000003       1.83179186       7.69920000      -0.00227599       0.00228650       0.00000412
Mg       3.17275650       0.00000000       5.13279995       0.00072673       0.00068320      -0.00000297
Mg       3.17275653       1.83179186       7.69920000       0.00249596       0.00440199       0.00000411
Mg       6.34551300       0.00000000       5.13279995       0.00392253      -0.00553465      -0.00000499
Mg       6.34551303       1.83179186       7.69920000      -0.00073755       0.00121594       0.00000455
Mg       9.51826950       0.00000000       5.13279995      -0.00387546       0.00248895      -0.00000423
Mg       9.51826953       1.83179186       7.69920000       0.00352189       0.00374716       0.00000665
Mg      12.69102600       0.00000000       5.13279995      -0.00080192      -0.00371081      -0.00000422
Mg      12.69102603       1.83179186       7.69920000       0.00288722       0.00332611       0.00000494
Mg      -1.58637825       2.74768773       5.13279995       0.00002428      -0.00157528      -0.00000342
Mg      -1.58637822       4.57947959       7.69920000      -0.00227918       0.00228867       0.00000181
Mg       1.58637825       2.74768773       5.13279995       0.00072599       0.00068172      -0.00000688
Mg       1.58637828       4.57947959       7.69920000       0.00249819       0.00439962       0.00000235
Mg       4.75913475       2.74768773       5.13279995       0.00392160      -0.00553624      -0.00000349
Mg       4.75913478       4.57947959       7.69920000      -0.00073672       0.00121742       0.00000290
Mg       7.93189125       2.74768773       5.13279995      -0.00387168       0.00249041      -0.00000702
Mg       7.93189128       4.57947959       7.69920000       0.00352198       0.00374964       0.00000328
Mg      11.10464775       2.74768773       5.13279995      -0.00080059      -0.00371150      -0.00000306
Mg      11.10464778       4.57947959       7.69920000       0.00288817       0.00332992       0.00000413
Mg      -3.17275650       5.49537546       5.13279995       0.00002141      -0.00157751      -0.00000578
Mg      -3.17275647       7.32716732       7.69920000      -0.00227619       0.00229176       0.00000155
Mg       0.00000000       5.49537546       5.13279995       0.00072570       0.00068135      -0.00000704
Mg       0.00000003       7.32716732       7.69920000       0.00249303       0.00439948       0.00000418
Mg       3.17275650       5.49537546       5.13279995       0.00392161      -0.00553541      -0.00000462
Mg       3.17275653       7.32716732       7.69920000      -0.00073321       0.00121730       0.00000432
Mg       6.34551300       5.49537546       5.13279995      -0.00387350       0.00248821      -0.00000567
Mg       6.34551303       7.32716732       7.69920000       0.00352207       0.00374956       0.00000499
Mg       9.51826950       5.49537546       5.13279995      -0.00080219      -0.00370953      -0.00000417
Mg       9.51826953       7.32716732       7.69920000       0.00289104       0.00332650       0.00000098
Mg      -4.75913475       8.24306319       5.13279995       0.00001990      -0.00157742      -0.00000421
Mg      -4.75913472      10.07485505       7.69920000      -0.00227526       0.00228816       0.00000500
Mg      -1.58637825       8.24306319       5.13279995       0.00072510       0.00068282      -0.00000374
Mg      -1.58637822      10.07485505       7.69920000       0.00249387       0.00440249       0.00000411
Mg       1.58637825       8.24306319       5.13279995       0.00392302      -0.00553002      -0.00000508
Mg       1.58637828      10.07485505       7.69920000      -0.00073490       0.00121882       0.00000534
Mg       4.75913475       8.24306319       5.13279995      -0.00387291       0.00249052      -0.00000524
Mg       4.75913478      10.07485505       7.69920000       0.00352122       0.00374664       0.00000513
Mg       7.93189125       8.24306319       5.13279995      -0.00079925      -0.00371181      -0.00000623
Mg       7.93189128      10.07485505       7.69920000       0.00289094       0.00332718       0.00000192
Mg       0.00000000       0.00000000      10.26560005       0.00002339      -0.00157800       0.00000726
Mg       0.00000003       1.83179186      12.83199995      -0.00227373       0.00228542       0.00000289
Mg       3.17275650       0.00000000      10.26560005       0.00072596       0.00068355       0.00000558
Mg       3.17275653       1.83179186      12.83199995       0.00250088       0.00440363       0.00000368
Mg       6.34551300       0.00000000      10.26560005       0.00392049      -0.00553351       0.00000746
Mg       6.34551303       1.83179186      12.83199995      -0.00072851       0.00122033       0.00000492
Mg       9.51826950       0.00000000      10.26560005      -0.00387456       0.00248896       0.00001229
Mg       9.51826953       1.83179186      12.83199995       0.00352200       0.00374332       0.00000750
Mg      12.69102600       0.00000000      10.26560005      -0.00080120      -0.00370995       0.00001193
Mg      12.69102603       1.83179186      12.83199995       0.00288586       0.00332585       0.00000402
Mg      -1.58637825       2.74768773      10.26560005       0.00002008      -0.00158003       0.00000600
Mg      -1.58637822       4.57947959      12.83199995      -0.00227660       0.00228926       0.00000047
Mg       1.58637825       2.74768773      10.26560005       0.00072323       0.00068306       0.00000269
Mg       1.58637828       4.57947959      12.83199995       0.00250140       0.00440451       0.00000410
Mg       4.75913475       2.74768773      10.26560005       0.00392279      -0.00553213       0.00000929
Mg       4.75913478       4.57947959      12.83199995      -0.00073090       0.00121876       0.00000617
Mg       7.93189125       2.74768773      10.26560005      -0.00387408       0.00248955       0.00000926
Mg       7.93189128       4.57947959      12.83199995       0.00352186       0.00374729       0.00000676
Mg      11.10464775       2.74768773      10.26560005      -0.00079976      -0.00370982       0.00001069
Mg      11.10464778       4.57947959      12.83199995       0.00288699       0.00332230       0.00000415
Mg      -3.17275650       5.49537546      10.26560005       0.00001965      -0.00157722       0.00000653
Mg      -3.17275647       7.32716732      12.83199995      -0.00227718       0.00228871       0.00000347
Mg       0.00000000       5.49537546      10.26560005       0.00072625       0.00068134       0.00000470
Mg       0.00000003       7.32716732      12.83199995       0.00249784       0.00440406       0.00000374
Mg       3.17275650       5.49537546      10.26560005       0.00392387      -0.00552941       0.00000729
Mg       3.17275653       7.32716732      12.83199995      -0.00072839       0.00121932       0.00000526
Mg       6.34551300       5.49537546      10.26560005      -0.00387018       0.00249014       0.00001286
Mg       6.34551303       7.32716732      12.83199995       0.00352384       0.00374740       0.00000241
Mg       9.51826950       5.49537546      10.26560005      -0.00080294      -0.00370926       0.00001006
Mg       9.51826953       7.32716732      12.83199995       0.00288711       0.00332538       0.00000535
Mg      -4.75913475       8.24306319      10.26560005       0.00001978      -0.00157806       0.00000763
Mg      -4.75913472      10.07485505      12.83199995      -0.00227700       0.00228707       0.00000129
Mg      -1.58637825       8.24306319      10.26560005       0.00072297       0.00068244       0.00000552
Mg      -1.58637822      10.07485505      12.83199995       0.00249877       0.00440491       0.00000145
Mg       1.58637825       8.24306319      10.26560005       0.00392064      -0.00553180       0.00000920
Mg       1.58637828      10.07485505      12.83199995      -0.00073186       0.00121763       0.00000414
Mg       4.75913475       8.24306319      10.26560005      -0.00387510       0.00249054       0.00001438
Mg       4.75913478      10.07485505      12.83199995       0.00352297       0.00374801       0.00000755
Mg       7.93189125       8.24306319      10.26560005      -0.00080106      -0.00370909       0.00000934
Mg       7.93189128      10.07485505      12.83199995       0.00288426       0.00332422       0.00000765
120
Lattice="15.8637825 0.0 0.0 -6.345513 10.99075092 0.0 0.0 0.0 15.3984" Properties=species:S:1:pos:R:3:forces:R:3 energy=-180.38984806 stress="-0.00409129499513416 0.00019185475309614508 5.579097762353268e-07 0.00019185475309614508 -0.0013891470210623113 -2.976525770060719e-06 5.579097762353268e-07 -2.976525770060719e-06 -0.002157065354176962" free_energy=-180.38927333 pbc="T T T"
Mg       9.50896631      10.98549218      15.38956163       0.03108132       0.02145124       0.02717196
Mg      -0.00105735       1.83336804       2.56728084       0.01446132      -0.01326115      -0.00448466
Mg       3.17718297       0.00408471      15.39814146      -0.01865164      -0.00895899      -0.01521099
Mg       3.17263229       1.82656059       2.57680768      -0.00166589       0.00992351      -0.02875689
Mg       0.00864316      10.98437255       0.00249085      -0.01701225       0.03443427      -0.00604194
Mg       6.34550355       1.83611694       2.57463958      -0.00810304      -0.01458620      -0.01525651
Mg       9.52402133       0.00330723      15.39436346      -0.02293103      -0.00669532       0.00612813
Mg       9.51851780       1.83159622       2.56053542       0.00099656      -0.00769953       0.01378533
Mg      12.69693618       0.00458842       0.00016615      -0.02138541      -0.00725861      -0.00478422
Mg      12.69228977       1.83587844       2.56846005      -0.00484837      -0.00751523      -0.00848947
Mg      -1.58070685       2.75446364      15.39413203      -0.02001775      -0.01592097       0.00782815
Mg      -1.58359803       4.57796550       2.56042116      -0.00942572      -0.00226680       0.02972429
Mg       1.58865083       2.74313107      15.39520021      -0.00590110       0.00278939       0.01170325
Mg       1.58287296       4.58089531       2.56742543       0.00615765      -0.00643805       0.00597022
Mg       4.74885524       2.74621431       0.00303302       0.02820806      -0.01818129      -0.00558470
Mg       4.76198125       4.58128724       2.55739168       0.00091193      -0.01022601       0.03865732
Mg       7.92312423       2.75332664       0.01196256       0.01745609      -0.01308441      -0.03736215
Mg       7.94715598       4.58283023       2.56722818      -0.03822587       0.00024224       0.00555900
Mg      11.09761343       2.74460153      15.39813977       0.00799627       0.00899118      -0.01830885
Mg      11.10642900       4.57452518       2.56135969       0.00022263       0.01340991       0.02478425
Mg      12.68370528       5.49012749       0.01209991       0.01736859       0.01909881      -0.03891275
Mg      -3.16606963       7.31949863       2.56458966      -0.01536357       0.01478834       0.01522009
Mg       0.00166433       5.49579575       0.00355919      -0.00407774       0.00131735      -0.01812705
Mg      -0.00655885       7.32628036       2.56395294       0.01918038       0.00049903       0.01937565
Mg       3.17248501       5.48816619       0.00945801      -0.00832323       0.01941257      -0.03588946
Mg       3.17501572       7.32655425       2.55856565      -0.00921900       0.00443018       0.01738076
Mg       6.33939577       5.49016035       0.00248515       0.01288319       0.03107862       0.00256766
Mg       6.35812144       7.32804350       2.56852965      -0.03199051       0.00275459      -0.01517614
Mg       9.51630103       5.50834444      15.39743144      -0.00349961      -0.02928884      -0.00511896
Mg       9.52816387       7.32424773       2.57343666      -0.01351888       0.01373887      -0.01767428
Mg      -4.76096537       8.24811938       0.00054218       0.01214575      -0.01646289      -0.00755910
Mg      -4.75512083      10.06101846       2.55974609      -0.02131559       0.04789080       0.00639280
Mg      -1.58550961       8.25359024       0.00166318      -0.01089925      -0.03606334      -0.01487412
Mg      -1.58934830      10.06807661       2.55948694       0.01056022       0.02151565       0.02671986
Mg       1.57807791       8.24154141       0.00231007       0.04112057      -0.00458867      -0.00632214
Mg       1.57904858      10.06833204       2.57214057       0.01728002       0.01407604      -0.00280162
Mg       4.75970483       8.24469158      15.39169184      -0.00472854      -0.00343441       0.02452700
Mg       4.74979327      10.07249280       2.56370733       0.02154730       0.01170863       0.00517151
Mg       7.93483773       8.24502240       0.00381003      -0.00825659      -0.01183900      -0.01677063
Mg       7.92633870      10.08142905       2.55762743       0.01877401      -0.01472177       0.02831085
Mg       9.51413771      10.98695482       5.13467671       0.01553494       0.00694776      -0.03197261
Mg      -0.00418461       1.82814502       7.69552841       0.02978518       0.01528462       0.00804074
Mg       3.17278528       0.00549307       5.13097601       0.00204589      -0.03826098       0.00417341
Mg       3.17335653       1.82496572       7.69597111      -0.01325932       0.00978436       0.02800028
Mg       0.00009845      10.98719442       5.13561308      -0.00162639      -0.00769801      -0.01049784
Mg       6.33273488       1.83367380       7.69179907       0.04318101      -0.00552363       0.01567696
Mg       9.51388913       0.01064575       5.13245271       0.00905121      -0.03715008       0.00734368
Mg       9.52279807       1.83402672       7.70377610      -0.02028795      -0.00755648      -0.01235129
Mg       6.34421921      10.99004740       5.13530357      -0.00992781      -0.00909192      -0.01352831
Mg      12.69427617       1.82661225       7.69933905      -0.01004906       0.00443796      -0.00768054
Mg      14.27892514       2.73898053       5.13358250       0.00503542       0.02355014      -0.01260583
Mg      -1.58903172       4.56873635       7.69297381      -0.00984746       0.01981611       0.02707676
Mg       1.60294730       2.74134365       5.13687945      -0.05607558       0.01905241      -0.00695282
Mg       1.58633726       4.57823093       7.70094048       0.01577373      -0.00645385      -0.01175825
Mg       4.75507800       2.74195012       5.13647616       0.02714903       0.02596998      -0.01426758
Mg       4.76462473       4.58068890       7.70019705      -0.02632542       0.00472561       0.00958353
Mg       7.93438983       2.74599428       5.13039626      -0.01279000       0.01567500       0.00858988
Mg       7.92953094       4.57777899       7.69462005       0.00520990       0.01107810       0.00826715
Mg      11.10477936       2.75204732       5.13447175      -0.00017496      -0.00808627      -0.00131770
Mg      11.10248101       4.58091872       7.70425714       0.01056636       0.00941995      -0.01413515
Mg      12.68665020       5.49562044       5.13829949       0.00030116       0.00458069      -0.01395960
Mg      -3.16700141       7.33351228       7.70313106      -0.02606180      -0.02015540       0.00086864
Mg      -0.00844864       5.49383412       5.13961990       0.01589730      -0.02288764      -0.02573554
Mg      -0.00596729       7.31586882       7.69707456       0.01227099       0.02541281       0.02188991
Mg       3.17052561       5.49394633       5.12355198       0.00674842      -0.01211926       0.01731951
Mg       3.16482293       7.32389779       7.69164200       0.01582035       0.00187617       0.01678938
Mg       6.33843150       5.50034174       5.13298227       0.01024147      -0.02262751      -0.00956709
Mg       6.34071049       7.32725184       7.70185884       0.01902791       0.00397161      -0.00466783
Mg       9.51160094       5.49877776       5.13823882       0.02193715      -0.00992445      -0.00795730
Mg       9.51924471       7.33097034       7.69850769       0.00240926      -0.01352475       0.00991660
Mg      -4.76347489       8.25242918       5.12857247       0.02211208      -0.03353767       0.01492213
Mg      -4.76331705      10.06768743       7.69370308       0.02004336       0.02712811       0.01161918
Mg      -1.58245806       8.24229944       5.14082313      -0.02277393       0.00412938      -0.02767183
Mg      -1.58338114      10.07197063       7.69971985      -0.01248581       0.00613808       0.00839390
Mg       1.58197059       8.23115647       5.14277796       0.01303849       0.03028157      -0.03203849
Mg       1.58261933      10.07826581       7.70242781       0.00948977      -0.00215324      -0.00637393
Mg       4.75467903       8.24148833       5.13005857      -0.00545038       0.01765396      -0.00041354
Mg       4.76040560      10.06872858       7.70348460      -0.00898414       0.01681655      -0.01400006
Mg       7.93102842       8.23880977       5.12898253      -0.00530474       0.01753359       0.01146141
Mg       7.94113292      10.07676216       7.69389310      -0.03172868      -0.01312234       0.00907149
Mg       0.00267371       0.00577201      10.26306224      -0.00125572       0.00064876       0.00517123
Mg      -0.00212394       1.83278234      12.83824030       0.00955846       0.00586870      -0.02490149
Mg       3.16751511       0.00216298      10.27425318      -0.00046183      -0.00674776      -0.03584182
Mg       3.17676188       1.83466253      12.82146744      -0.00838548      -0.00374238       0.03177759
Mg       6.33738500       0.00499892      10.26144787       0.02472155      -0.01791386       0.01111595
Mg       6.34746805       1.83990006      12.83029257      -0.01151948      -0.02096402       0.01786690
Mg       3.16974232      10.98918595      10.27040497       0.00338991       0.00641929      -0.01615693
Mg       9.50948252       1.82893327      12.81737532       0.02806537       0.01690873       0.03910351
Mg       6.34552750      10.99025678      10.26354206      -0.00800711      -0.00398821       0.00303064
Mg      12.69417188       1.83101525      12.82936713      -0.01772356       0.01962907       0.00018661
Mg      14.27937650       2.73535380      10.26234006      -0.00245134       0.05095930       0.01594225
Mg      -1.58222416       4.59334475      12.83376630      -0.01390949      -0.03404236      -0.01507785
Mg       1.58832239       2.76534789      10.27235764      -0.00424432      -0.05297332      -0.02995271
Mg       1.58961354       4.57431448      12.82535600       0.00265593       0.02066439       0.03589023
Mg       4.75939396       2.73862311      10.26327305      -0.00388084       0.04205081       0.00367285
Mg       4.76716782       4.58785685      12.83855474      -0.02684012      -0.02252581      -0.01707052
Mg       7.92837809       2.75143525      10.26627758      -0.00428595      -0.01516481      -0.02378815
Mg       7.92522484       4.57844646      12.83204645       0.03101124       0.01580437       0.02085505
Mg      11.10458100       2.75209304      10.25353186       0.01163402      -0.01507213       0.03874154
Mg      11.10268899       4.57984932      12.83584431       0.01062930      -0.00496014      -0.00387635
Mg      12.68534651       5.50420587      10.26880307       0.02139055      -0.02312626      -0.00369459
Mg      -3.16253391       7.33108068      12.83712654      -0.02668345      -0.00433743       0.00687634
Mg       0.00897164       5.49246808      10.25920325      -0.03512542       0.00869196       0.01107784
Mg       0.00723103       7.32608341      12.83236289       0.00602452       0.00869871      -0.00060870
Mg       3.17549107       5.50411618      10.27226925       0.02341399      -0.02916137      -0.02367306
Mg       3.17903856       7.32158764      12.83114287      -0.02272271       0.02065536       0.01133380
Mg       6.35711742       5.49277109      10.27548505      -0.02793844       0.01589935      -0.02627867
Mg       6.34220264       7.33312200      12.83486082       0.03169593      -0.00379064      -0.00480206
Mg       9.51787960       5.48546422      10.26653412       0.00351404       0.03868265      -0.00239839
Mg       9.52559241       7.32958968      12.82495195      -0.02532025      -0.01236214       0.01405526
Mg      -4.76222219       8.25677173      10.27305642       0.01534937      -0.04013935      -0.02435852
Mg      -4.76770253      10.06898038      12.83259510       0.02213748       0.03365921       0.00886788
Mg      -1.58049310       8.24165363      10.27343722      -0.00724179       0.00062923      -0.01956327
Mg      -1.58393504      10.07640145      12.82555803       0.00101251       0.01082244       0.02319038
Mg       1.59107364       8.24708438      10.26193323      -0.00634138      -0.01401543       0.00762412
Mg       1.58651519      10.07613162      12.83575623      -0.00078371      -0.00945056      -0.01111925
Mg       4.76254445       8.23877361      10.25965735      -0.00655165       0.01332220       0.01290652
Mg       4.76187880      10.06923537      12.83319302      -0.00531233       0.02430088      -0.01110551
Mg       7.93599182       8.25279891      10.26287869      -0.00756517      -0.02978035       0.00227693
Mg       7.93120489      10.07771561      12.82843907       0.00016113      -0.00648104      -0.00248717
120
Lattice="15.8637825 0.0 0.0 -6.345513 10.99075092 0.0 0.0 0.0 15.3984" Properties=species:S:1:pos:R:3:forces:R:3 energy=-180.34142922 stress="-0.004093080129159253 0.00017320056128483486 3.4723699795482624e-06 0.00017320056128483486 -0.0014516924912052742 -1.4732102374714668e-05 3.4723699795482624e-06 -1.4732102374714668e-05 -0.0022043274219271398" free_energy=-180.34081723 pbc="T T T"
Mg       9.49967572      10.98024156      15.38073419       0.06430578       0.04300699       0.05511095
Mg      -0.00210903       1.83493873       2.56815993       0.02922395      -0.03181097      -0.00833652
Mg       3.18160192       0.00816569      15.39787707      -0.03096291      -0.01074799      -0.03001163
Mg       3.17250747       1.82133306       2.58720391      -0.00694741       0.02144106      -0.06518584
Mg       0.01727947      10.97800769       0.00497923      -0.04134731       0.07426016      -0.01087147
Mg       6.34549089       1.84043597       2.58287326      -0.01173369      -0.03005914      -0.03239558
Mg       9.52976392       0.00661149      15.39032939      -0.04005717      -0.01709698       0.01139876
Mg       9.51876654       1.83139729       2.55467633      -0.00581339      -0.01699030       0.03064028
Mg      12.70283789       0.00917365       0.00033045      -0.04229757      -0.00908201      -0.00888173
Mg      12.69355148       1.83996194       2.57051681      -0.01103053      -0.02071566      -0.01625234
Mg      -1.57504355       2.76123295      15.38986728      -0.03687656      -0.02858726       0.01576131
Mg      -1.58082148       4.57645032       2.55445413      -0.01502013      -0.00783322       0.06242760
Mg       1.59092100       2.73857530      15.39200504      -0.01317491       0.00402978       0.02224615
Mg       1.57937001       4.58230828       2.56845312       0.00997437      -0.02031809       0.01114837
Mg       4.73858687       2.74473342       0.00606389       0.05239536      -0.03065713      -0.01200109
Mg       4.76482798       4.58309060       2.54839886       0.00554742      -0.01735330       0.07323476
Mg       7.91436402       2.75896006       0.02391033       0.03359157      -0.02670789      -0.07372887
Mg       7.96240574       4.58618065       2.56805877      -0.06628509      -0.00414439       0.01413504
Mg      11.09058206       2.74151873      15.39787230       0.01681839       0.01726715      -0.03443684
Mg      11.10821025       4.56957593       2.55632934      -0.00205283       0.02447283       0.05164533
Mg      12.67639141       5.48488688       0.02418457       0.03628080       0.03804436      -0.08137407
Mg      -3.15938873       7.31183555       2.56278543      -0.02678566       0.02417659       0.03319466
Mg       0.00332695       5.49621625       0.00711114      -0.00727886       0.00305059      -0.03489601
Mg      -0.01311012       7.32539341       2.56151368       0.03838901      -0.00710320       0.03753766
Mg       3.17221037       5.48096428       0.01890200      -0.02201155       0.04349986      -0.07247677
Mg       3.17727124       7.32594262       2.55073834      -0.01622403       0.00594021       0.03258013
Mg       6.33328377       5.48495733       0.00497137       0.03068064       0.05090310       0.00509959
Mg       6.37071712       7.32892056       2.57065340      -0.05868197       0.00124658      -0.02654413
Mg       9.51433106       5.52130143      15.39646073      -0.00678231      -0.05520442      -0.00878980
Mg       9.53805287       7.32133354       2.58046618      -0.02567344       0.02161984      -0.03393830
Mg      -4.76279110       8.25316875       0.00108143       0.02665815      -0.03468090      -0.01083066
Mg      -4.75111558      10.04720067       2.55309476      -0.03696983       0.09075486       0.01873962
Mg      -1.58464529       8.26410278       0.00332051      -0.02074233      -0.06829192      -0.02957740
Mg      -1.59231426      10.06130642       2.55258461       0.01609952       0.04196450       0.05675886