108
Lattice="10.8573 0.0 0.0 0.16345276 10.85606957 0.0 0.16345276 0.16101028 10.8548755" Properties=species:S:1:pos:R:3:forces:R:3 energy=-405.04540636 stress="-0.001053248223755382 0.008253862756652203 0.008132305303203186 0.008253862756652203 -0.0013017916020760351 0.00801078225295247 0.008132305303203186 0.00801078225295247 -0.0015394268571766194" free_energy=-405.04278672 pbc="T T T"
Cu       0.00000000       0.00000000       0.00000000      -0.00000917       0.00000975      -0.00002402
Cu       1.83679580       1.80934855       0.00000000      -0.01016221      -0.01002642      -0.00521837
Cu       0.05448436       1.83618365       1.80914953      -0.00548685      -0.01010835      -0.00997530
Cu       1.83679580       0.02683510       1.80914953      -0.01015241      -0.00534745      -0.00994163
Cu       3.61909638       0.00000000       0.00000000       0.00789385       0.00154243       0.00152536
Cu       5.45589218       1.80934855       0.00000000      -0.00164337      -0.00786354      -0.00150671
Cu       3.67358074       1.83618365       1.80914953       0.00207282      -0.00442627      -0.00437594
Cu       5.45589218       0.02683510       1.80914953      -0.00164958      -0.00160841      -0.00786539
Cu       7.23820362       0.00000000       0.00000000      -0.00788580      -0.00152262      -0.00151318
Cu       9.07498856       1.80934855       0.00000000       0.00883598      -0.00899335      -0.00003736
Cu       7.29268798       1.83618365       1.80914953      -0.00409860      -0.00401940      -0.00398052
Cu       9.07498856       0.02683510       1.80914953       0.00883588      -0.00014086      -0.00900385
Cu       0.05448420       3.61868624       0.00000000       0.00163452       0.00783494       0.00146931
Cu       1.89128000       5.42803479       0.00000000      -0.00786625      -0.00155325      -0.00148332
Cu       0.10896856       5.45486989       1.80914953      -0.00161449      -0.00161780      -0.00782907
Cu       1.89128000       3.64552134       1.80914953      -0.00436280       0.00211774      -0.00435493
Cu       3.67358058       3.61868624       0.00000000       0.01018833       0.01000119       0.00521658
Cu       5.51037638       5.42803479       0.00000000       0.00000470      -0.00001001       0.00000406
Cu       3.72806494       5.45486989       1.80914953       0.00885410      -0.00014680      -0.00895737
Cu       5.51037638       3.64552134       1.80914953      -0.00002373       0.00883756      -0.00899452
Cu       7.29268782       3.61868624       0.00000000      -0.00885570       0.00896904      -0.00002943
Cu       9.12947276       5.42803479       0.00000000       0.00786340       0.00152325       0.00146560
Cu       7.34717218       5.45486989       1.80914953      -0.01020432      -0.00535852      -0.00994802
Cu       9.12947276       3.64552134       1.80914953       0.00438299       0.00432018      -0.00223027
Cu       0.10896856       7.23738333       0.00000000      -0.00166997      -0.00784184      -0.00151780
Cu       1.94576420       9.04672102       0.00000000      -0.00884823       0.00900884       0.00000780
Cu       0.16345276       9.07355612       1.80914953       0.00000427       0.00885886      -0.00897801
Cu       1.94576436       7.26421843       1.80914953      -0.00404761      -0.00400533      -0.00391185
Cu       3.72806494       7.23738333       0.00000000       0.00888146      -0.00897971       0.00001826
Cu       5.56486058       9.04672102       0.00000000       0.00165868       0.00787274       0.00150502
Cu       3.78254914       9.07355612       1.80914953       0.00440665       0.00434653      -0.00219128
Cu       5.56486074       7.26421843       1.80914953      -0.00551992      -0.01009193      -0.00993755
Cu       7.34717218       7.23738333       0.00000000      -0.01018142      -0.01001435      -0.00522716
Cu       9.18395696       9.04672102       0.00000000       0.01015768       0.01003897       0.00517921
Cu       7.40165638       9.07355612       1.80914953      -0.00440868       0.00214680      -0.00438388
Cu       9.18395712       7.26421843       1.80914953       0.00205253      -0.00441118      -0.00437237
Cu       0.05448420       0.05367004       3.61828822       0.00166437       0.00159994       0.00784357
Cu       1.89128000       1.86301859       3.61828822      -0.00438571      -0.00433500       0.00219056
Cu       0.10896856       1.88985369       5.42743775      -0.00162769      -0.00786506      -0.00146613
Cu       1.89128000       0.08050514       5.42743775      -0.00790791      -0.00152466      -0.00150511
Cu       3.67358058       0.05367004       3.61828822       0.01016202       0.00534927       0.00991631
Cu       5.51037638       1.86301859       3.61828822      -0.00001222      -0.00884077       0.00894387
Cu       3.72806494       1.88985369       5.42743775       0.00882439      -0.00896370      -0.00001130
Cu       5.51037638       0.08050514       5.42743775      -0.00000158      -0.00001133      -0.00001603
Cu       7.29268782       0.05367004       3.61828822      -0.00885911       0.00012436       0.00895735
Cu       9.12947276       1.86301859       3.61828822       0.00439427      -0.00214599       0.00435969
Cu       7.34717218       1.88985369       5.42743775      -0.01016460      -0.01001374      -0.00519311
Cu       9.12947276       0.08050514       5.42743775       0.00790859       0.00150023       0.00152955
Cu       0.10896840       3.67235628       3.61828822       0.00553452       0.01010111       0.00996240
Cu       1.94576420       5.48170482       3.61828822      -0.00881600       0.00014336       0.00899694
Cu       0.16345276       5.50853993       5.42743775       0.00001180       0.00002163       0.00001951
Cu       1.94576420       3.69919138       5.42743775      -0.00883872       0.00899680       0.00000217
Cu       3.72806478       3.67235628       3.61828822       0.00405743       0.00401562       0.00393366
Cu       5.56486058       5.48170482       3.61828822       0.00161888       0.00162972       0.00783444
Cu       3.78254914       5.50853993       5.42743775       0.00787796       0.00153057       0.00148054
Cu       5.56486058       3.69919138       5.42743775       0.00162574       0.00790212       0.00150290
Cu       7.34717202       3.67235628       3.61828822      -0.00208276       0.00443951       0.00435855
Cu       9.18395696       5.48170482       3.61828822       0.01017098       0.00536650       0.00997903
Cu       7.40165638       5.50853993       5.42743775      -0.00788840      -0.00150557      -0.00148173
Cu       9.18395696       3.69919138       5.42743775       0.01018770       0.01003663       0.00524980
Cu       0.16345276       7.29105337       3.61828822       0.00002121      -0.00883901       0.00901008
Cu       2.00024840       9.10039106       3.61828822      -0.00205512       0.00442207       0.00437391
Cu       0.21793696       9.12722616       5.42743775       0.00164013       0.00784744       0.00151537
Cu       2.00024856       7.31788847       5.42743775      -0.01017641      -0.01003507      -0.00522280
Cu       3.78254914       7.29105337       3.61828822       0.00439758      -0.00213737       0.00436703
Cu       5.61934478       9.10039106       3.61828822       0.00549435       0.01006974       0.00992061
Cu       3.83703334       9.12722616       5.42743775       0.01015196       0.00999945       0.00519017
Cu       5.61934494       7.31788847       5.42743775      -0.00164503      -0.00788311      -0.00150859
Cu       7.40165638       7.29105337       3.61828822      -0.00441839      -0.00433269       0.00220547
Cu       9.23844116       9.10039106       3.61828822       0.00407512       0.00400406       0.00395808
Cu       7.45614058       9.12722616       5.42743775      -0.00882049       0.00895275       0.00001043
Cu       9.23844132       7.31788847       5.42743775       0.00885052      -0.00897446       0.00003118
Cu       0.10896856       0.10734024       7.23658728      -0.00165484      -0.00161543      -0.00782097
Cu       1.94576436       1.91668879       7.23658728      -0.00408594      -0.00399836      -0.00393034
Cu       0.16345276       1.94352373       9.04572597      -0.00001411      -0.00885452       0.00897367
Cu       1.94576420       0.13417518       9.04572597      -0.00886550       0.00015413       0.00898336
Cu       3.72806494       0.10734024       7.23658728       0.00882422      -0.00012015      -0.00897153
Cu       5.56486074       1.91668879       7.23658728      -0.00550510      -0.01007214      -0.00989831
Cu       3.78254914       1.94352373       9.04572597       0.00439851      -0.00212458       0.00438995
Cu       5.56486058       0.13417518       9.04572597       0.00166346       0.00162679       0.00787909
Cu       7.34717218       0.10734024       7.23658728      -0.01013628      -0.00535983      -0.00990870
Cu       9.18395712       1.91668879       7.23658728       0.00208282      -0.00442038      -0.00432820
Cu       7.40165638       1.94352373       9.04572597      -0.00438594      -0.00433000       0.00221741
Cu       9.18395696       0.13417518       9.04572597       0.01017032       0.00536095       0.00994343
Cu       0.16345276       3.72602648       7.23658728      -0.00000726       0.00884294      -0.00896325
Cu       2.00024856       5.53537503       7.23658728      -0.01019376      -0.00537436      -0.00997531
Cu       0.21793696       5.56220996       9.04572597       0.00161783       0.00160011       0.00780627
Cu       2.00024840       3.75286142       9.04572597      -0.00207415       0.00439839       0.00434910
Cu       3.78254914       3.72602648       7.23658728       0.00438378       0.00433646      -0.00219052
Cu       5.61934494       5.53537503       7.23658728      -0.00162268      -0.00161862      -0.00784092
Cu       3.83703334       5.56220996       9.04572597       0.01019580       0.00533836       0.00994346
Cu       5.61934478       3.75286142       9.04572597       0.00552921       0.01007876       0.00996296
Cu       7.40165638       3.72602648       7.23658728      -0.00437755       0.00214590      -0.00433147
Cu       9.23844132       5.53537503       7.23658728       0.00884214      -0.00012818      -0.00897545
Cu       7.45614058       5.56220996       9.04572597      -0.00884283       0.00012185       0.00896524
Cu       9.23844116       3.75286142       9.04572597       0.00405499       0.00398656       0.00393570
Cu       0.21793712       7.34472357       7.23658728      -0.00553595      -0.01008859      -0.00996418
Cu       2.05473276       9.15406126       7.23658728      -0.00442986       0.00214095      -0.00438236
Cu       0.27242116       9.18089620       9.04572597       0.00548060       0.01011613       0.00992749
Cu       2.05473276       7.37155851       9.04572597      -0.00440771      -0.00432278       0.00217597
Cu       3.83703350       7.34472357       7.23658728       0.00206689      -0.00444383      -0.00438937
Cu       5.67382914       9.15406126       7.23658728       0.00002180       0.00882663      -0.00895874
Cu       3.89151754       9.18089620       9.04572597       0.00407834       0.00401745       0.00396315
Cu       5.67382914       7.37155851       9.04572597       0.00003099      -0.00884588       0.00898347
Cu       7.45614074       7.34472357       7.23658728      -0.00404205      -0.00402096      -0.00393768
Cu       9.29292552       9.15406126       7.23658728       0.00441023       0.00431822      -0.00217577
Cu       7.51062478       9.18089620       9.04572597      -0.00204739       0.00443562       0.00437200
Cu       9.29292552       7.37155851       9.04572597       0.00438182      -0.00211646       0.00434004
108
Lattice="10.8573 0.0 0.0 0.16345276 10.85606957 0.0 0.16345276 0.16101028 10.8548755" Properties=species:S:1:pos:R:3:forces:R:3 energy=-405.02634848 stress="-0.0008853549362689589 0.008251251671241463 0.008117084721599754 0.008251251671241463 -0.0011312513092938525 0.008003542039951355 0.008117084721599754 0.008003542039951355 -0.0013300164178753195" free_energy=-405.02373866 pbc="T T T"
Cu       0.00063921       0.00370662       0.00116614      -0.02297971      -0.04596877      -0.01042144
Cu       1.99312713       1.96842321      10.84943916       0.04239154       0.01317529       0.01784315
Cu      10.90970407       1.83392000       1.80478425      -0.00832269       0.00510709       0.03101002
Cu       1.83278169       0.02859042       1.80125261       0.02271784      -0.02385585       0.02723323
Cu       3.78437940       0.17007171      10.85418611      -0.00662323      -0.04899303       0.02182655
Cu       5.61902283       1.97717588      10.85301541      -0.01339108      -0.04051458       0.01688582
Cu       3.66778222       1.84093229       1.81577915       0.02714520      -0.01280213      -0.05343123
Cu       5.45607306       0.03083975       1.80689248      -0.01576848      -0.02009032      -0.00899131
Cu       7.23998064       0.00026406       0.00459921      -0.02616205      -0.01274074      -0.01857598
Cu       9.23919244       1.97088867      10.85080318      -0.01314659       0.00132468       0.03940673
Cu       7.28976217       1.83211943       1.80799110       0.03996776       0.04107593       0.03053070
Cu       9.07561357       0.02768467       1.81339238       0.00571657       0.00000545      -0.02666442
Cu       0.22150024       3.77548301      10.85429411      -0.01213834       0.04941512      -0.02032713
Cu       1.89372824       5.42774615       0.00445191      -0.01553406      -0.01124696      -0.03865729
Cu       0.11339037       5.45421006       1.80434907      -0.04271228       0.00875323       0.02337480
Cu       1.88469186       3.65099846       1.80926025       0.03257669      -0.06093150       0.02103237
Cu       3.66687546       3.61164357       0.00462472       0.03367767       0.03704008      -0.02094402
Cu       5.67484807       5.59008823      10.84877202      -0.01241492      -0.03501092       0.04882162
Cu       3.72829159       5.45396321       1.80554289       0.01500532       0.00770360       0.01471675
Cu       5.51577509       3.64649259       1.81107877      -0.03079760       0.00718419      -0.01989998
Cu       7.45428251       3.77757081      10.85425493       0.00262815       0.02290758      -0.01133074
Cu       9.13094261       5.42509011       0.00061688       0.01102141       0.02138366      -0.01297800
Cu       7.35302677       5.44471001       1.81225967      -0.04606183       0.06841409      -0.04177814
Cu       9.13440920       3.65231254       1.80702524      -0.01538269      -0.06267537       0.02303658
Cu      11.12959412       7.39999236      10.84541016      -0.03599953      -0.02988098       0.07414456
Cu       2.10267084       9.20748144      10.84448543       0.03964149       0.02863330       0.07898257
Cu       0.16581249       9.07736335       1.81040870      -0.03202572      -0.02154108      -0.01635355
Cu       1.93660452       7.26360307       1.80821710       0.05527278       0.00947157       0.00730372
Cu       3.88640782       7.39725309      10.85370567       0.04083657      -0.00571054       0.02563370
Cu       5.72538460       9.20263053      10.85400841       0.00826323       0.03912806       0.00429699
Cu       3.77750506       9.06913929       1.80851702       0.00482485       0.03244927      -0.02009987
Cu       5.56673850       7.26573252       1.81388421      -0.00936493      -0.04195271      -0.05667350
Cu       7.50908948       7.39841487      10.85464027       0.00231284      -0.01575999       0.03313083
Cu       9.34755887       9.20815790      10.85321069       0.00942894       0.00835240       0.04917523
Cu       7.39880339       9.07094673       1.81274825       0.02770451       0.00356400      -0.04000044
Cu       9.18689070       7.25563333       1.81670930      -0.01026262       0.05356827      -0.05205478
Cu       0.22357184      10.90753370       3.61933766      -0.04224244       0.03614593      -0.00252976
Cu       1.89230199       1.86386670       3.61982006      -0.04064038       0.00170031      -0.01434072
Cu      10.95687456       1.88774115       5.43045703       0.06085975       0.02296831      -0.00969230
Cu       1.89227687       0.08224764       5.42286285      -0.01728736      -0.02187538       0.03151812
Cu       3.67733530       0.05842618       3.61213198      -0.02496443      -0.04498515       0.03446777
Cu       5.50440932       1.86258042       3.62142679       0.05505948       0.01060074      -0.01782492
Cu       3.71883343       1.89379269       5.42594401       0.06311374      -0.03517983       0.01164715
Cu       5.51267392       0.08961094       5.42036406      -0.03870779      -0.06462688       0.04876474
Cu       7.45807942      10.90627157       3.62031113      -0.00823250       0.04267916       0.00032117
Cu       9.12934754       1.86976371       3.61928589       0.00451932      -0.06002748      -0.00154999
Cu       7.34665922       1.88485678       5.42957008      -0.00381965       0.01209233       0.00302210
Cu       9.30038484      10.93621015       5.43663650      -0.04755175      -0.00486442      -0.05519152
Cu      10.96490347       3.66880193       3.61978380       0.00392161       0.02100233       0.00767157
Cu       1.94343330       5.47501683       3.61892442       0.02508961       0.03303138      -0.00304268
Cu      11.01745729       5.50730309       5.42117232       0.00794831       0.00278967       0.05310848
Cu       1.95072229       3.69888005       5.42627541      -0.05076775       0.01697292       0.01553852
Cu       3.73546728       3.67367401       3.61902906      -0.03879181       0.01449379      -0.02128199
Cu       5.56831040       5.48634201       3.61613743      -0.00584404      -0.04149127       0.03404517
Cu       3.78209352       5.50489970       5.42941616       0.03310058       0.00563341      -0.00296114
Cu       5.56591943       3.69901345       5.43018284       0.03003255       0.00973359      -0.00056476
Cu       7.34848784       3.67237020       3.61950516      -0.02333412      -0.01388305       0.01147166
Cu       9.18250654       5.48314845       3.62300086       0.04828434      -0.00743434      -0.01653823
Cu       7.41201864       5.51373949       5.42777034      -0.08438236      -0.03223742       0.02181760
Cu       9.17516486       3.70036797       5.42514770       0.05420636      -0.01432277       0.04408530
Cu       0.16680241       7.28691380       3.61936849      -0.03059303       0.02948313       0.01350968
Cu       1.99916981       9.09823118       3.61865663       0.02455145       0.01807325      -0.01255578
Cu       0.21892648       9.12719481       5.42399220       0.01988266      -0.01460734       0.02122417
Cu       2.00991098       7.31592932       5.42556702      -0.07464127      -0.00181962      -0.00162165
Cu       3.78608773       7.28917465       3.62014212      -0.03468283      -0.00288750      -0.03450402
Cu       5.62299819       9.10036351       3.61236862      -0.02883675       0.04013136       0.03449534
Cu       3.83360720       9.12433015       5.42504827       0.04479283       0.06857782      -0.01060833
Cu       5.62157739       7.32309426       5.41566010      -0.01232889      -0.04126023       0.08369202
Cu       7.40143814       7.28732902       3.62308498       0.02301832       0.02700151      -0.04760993
Cu       9.23195366       9.10358253       3.61804648       0.05361104      -0.02434247       0.00980228
Cu       7.45375703       9.12864963       5.43070301       0.00352703       0.01578952      -0.00858652
Cu       9.23578504       7.32378023       5.43019359       0.04927747      -0.01905345      -0.01183147
Cu      11.12825100      10.95728815       7.23609480       0.03745843       0.02784059       0.02162725
Cu       1.94847965       1.92075279       7.23363270      -0.05897665      -0.02896531       0.01518625
Cu      11.02069156       1.94147320       9.05651886       0.00845018       0.01203728      -0.10254885
Cu       1.94831577       0.13552789       9.04236226      -0.03208180       0.00789959       0.01466005
Cu       3.88803125      10.95858285       7.23361403       0.02301521       0.02245305      -0.02275022
Cu       5.55658519       1.91398507       7.23673990       0.06224800      -0.02717932      -0.02683038
Cu       3.77810582       1.94456599       9.04291368       0.00575861      -0.02911193       0.03102061
Cu       5.72583905      10.99001703       9.04419912       0.00981090       0.00139647       0.03216485
Cu       7.50996708      10.95734976       7.23773052      -0.01760559       0.03821842      -0.02123706
Cu       9.18552140       1.91297253       7.24213434      -0.01528090       0.02561438      -0.01269959
Cu       7.40095166       1.94108774       9.05034461      -0.01099325       0.01185597      -0.04405191
Cu       9.17960920       0.13737026       9.04272752       0.05139703      -0.02813003       0.03858185
Cu      11.01907666       3.72885944       7.23619673      -0.00293985      -0.02150784      -0.01847220
Cu       1.99663912       5.53683347       7.23137152       0.02567359      -0.00015012       0.00298509
Cu       0.22375968       5.56449610       9.04411260      -0.03082112       0.00194397       0.02064988
Cu       2.00067049       3.75766121       9.03626996      -0.01477937      -0.01297288       0.05556855
Cu       3.79069235       3.72108163       7.24765969      -0.04513509       0.06137742      -0.09672336
Cu       5.61835273       5.53493411       7.23237527       0.01878403       0.02311585       0.00164105
Cu       3.83847985       5.55729290       9.04680038       0.00067028       0.04346814      -0.01080154
Cu       5.61283682       3.74468709       9.03759241       0.06256040       0.05787934       0.06061010
Cu       7.40815394       3.72859864       7.24243763      -0.04592961      -0.02307630      -0.02381730
Cu       9.23758899       5.53575756       7.23957096       0.04415488       0.02129217      -0.02787412
Cu       7.46074716       5.56629552       9.04742302      -0.04783231      -0.03115824       0.00041250
Cu       9.23804882       3.75678880       9.04375570       0.02101616      -0.01984758       0.02608894
Cu       0.21989299       7.34819843       7.23607114      -0.00201882      -0.03361061      -0.00550728
Cu       2.05686480       9.15282287       7.24665529      -0.02658696       0.00344334      -0.06923044
Cu       0.27628358       9.17791703       9.05201680      -0.03848403       0.05015360      -0.03570207
Cu       2.05918846       7.37135913       9.05662697       0.00872598      -0.03464142      -0.09951804
Cu       3.83780911       7.35194409       7.22750718       0.01419618      -0.06004607       0.06535261
Cu       5.67395704       9.15876388       7.23933813      -0.00504852      -0.02347475      -0.02836972
Cu       3.88915394       9.18118062       9.04750378       0.03816185      -0.00225537       0.00277698
Cu       5.67512899       7.36649955       9.04777287      -0.01656118       0.03524082      -0.03240753
Cu       7.45860630       7.34549744       7.23536807      -0.04282446       0.00753143       0.01248272
Cu       9.29664768       9.15079676       7.24075349       0.00684644       0.01392136      -0.01415083
Cu       7.51697392       9.18536557       9.04539880      -0.05893338      -0.01431861       0.02882962
Cu       9.28667374       7.37330263       9.05008648       0.05071030      -0.02232949      -0.01543009
108
Lattice="10.8573 0.0 0.0 0.16345276 10.85606957 0.0 0.16345276 0.16101028 10.8548755" Properties=species:S:1:pos:R:3:forces:R:3 energy=-404.96770362 stress="-0.0011865626955976614 0.008218592207034657 0.008072853462024503 0.008218592207034657 -0.0013698104263337408 0.0080029045072432 0.008072853462024503 0.0080029045072432 -0.0015572686541601047" free_energy=-404.9651243 pbc="T T T"
Cu       0.00127481       0.00740627       0.00233054      -0.05793263      -0.08594523      -0.02874238
Cu       1.98601217       1.96648970      10.84400554       0.10620491       0.03547534       0.04506427
Cu      10.90762244       1.83165708       1.80042373      -0.00893471       0.01938037       0.07270772
Cu       1.82877106       0.03034222       1.79335982       0.06398686      -0.04313858       0.07881358
Cu       3.78620851       0.17912559      10.85350008      -0.01514717      -0.08726459       0.03853100
Cu       5.61869860       1.98398678      10.85115792      -0.02826990      -0.08272522       0.03932575
Cu       3.66198789       1.84567907       1.82240052       0.05071945      -0.01922771      -0.10530731
Cu       5.45625137       0.03484124       1.80463402      -0.02792923      -0.03971969      -0.01591875
Cu       7.24175357       0.00052624       0.00919560      -0.04671198      -0.02821966      -0.03813285
Cu       9.23994147       1.97141881      10.84673673      -0.03907128       0.00824464       0.07698403
Cu       7.28684238       1.82806158       1.80683723       0.06580705       0.06518963       0.05284914
Cu       9.07623948       0.02853417       1.81763099       0.00293223       0.00090570      -0.04469986
Cu       0.22506175       3.77127695      10.85370969      -0.03176438       0.09347100      -0.03777418
Cu       1.89617419       5.42745569       0.00889774      -0.02404308      -0.02457815      -0.07900739
Cu       0.11780563       5.45355160       1.79955220      -0.08500777       0.01868461       0.05193799
Cu       1.87810863       3.65646639       1.80937412       0.05945205      -0.12111530       0.04332418
Cu       3.66017538       3.60460649       0.00924618       0.06371506       0.07168478      -0.04877305
Cu       5.67586518       5.59112608      10.84267581      -0.01952579      -0.06515048       0.08766313
Cu       3.72852035       5.45305776       1.80193853       0.02165774       0.01530291       0.03773754
Cu       5.52116900       3.64746487       1.81300486      -0.06415301       0.00156594      -0.03429483
Cu       7.45242478       3.77544856      10.85363251       0.01056671       0.03356275      -0.02860525
Cu       9.13241401       5.42214865       0.00123159       0.01772796       0.04262501      -0.02899241
Cu       7.35887436       5.43456057       1.81536341      -0.08211342       0.14432321      -0.06943963
Cu       9.13934337       3.65909425       1.80490441      -0.02989363      -0.12334339       0.03462814
Cu      11.12946137       7.40158659      10.83595589      -0.05962708      -0.05449046       0.15146706
Cu       2.09613073       9.20723587      10.83410730       0.08796196       0.05261635       0.15783854
Cu       0.16816724       9.08116739       1.81166526      -0.07010883      -0.06012568      -0.02325324
Cu       1.92745308       7.26298924       1.80728575       0.09904004       0.01449154       0.01134655
Cu       3.88130418       7.39611165      10.85253975       0.07883680      -0.00199320       0.05060778
Cu       5.72245716       9.19753573      10.85314198       0.01924828       0.07624532       0.00803160
Cu       3.77246167       9.06472739       1.80788136       0.00902295       0.06013949      -0.03757951
Cu       5.56861484       7.26724029       1.81861021      -0.01333123      -0.07405688      -0.09715690
Cu       7.50755438       7.39843382      10.85440993       0.01710943      -0.02213173       0.06964091
Cu       9.34770944       9.20858579      10.85155326       0.00732863       0.00608105       0.09785750
Cu       7.39595455       9.06833789       1.81634089       0.06086584       0.00748857      -0.07960120
Cu       9.18982265       7.24705637       1.82426115      -0.01256353       0.11305297      -0.10696020
Cu       0.22920018      10.90533332       3.62038657      -0.08550904       0.06705953      -0.01760720
Cu       1.89331776       1.86471509       3.62134951      -0.07319750       0.01169084      -0.03160612
Cu      10.94748971       1.88563218       5.43347480       0.11155972       0.04693667      -0.01833008
Cu       1.89327104       0.08398684       5.41829263      -0.02333456      -0.04582103       0.06798481
Cu       3.68108629       0.06317544       3.60598085      -0.06681773      -0.10219045       0.05909254
Cu       5.49845061       1.86214384       3.62456266       0.10993571       0.03265670      -0.04106079
Cu       3.70961142       1.89772640       5.42445190       0.12139845      -0.06799842       0.02241006
Cu       5.51496556       0.09870697       5.41329775      -0.08639179      -0.12649287       0.09381686
Cu       7.46001705      10.90280994       3.62233415      -0.00843252       0.08280832      -0.00470395
Cu       9.12922305       1.87649972       3.62028334       0.00446240      -0.11848755      -0.00973757
Cu       7.34614553       1.87986173       5.43170274       0.00986390       0.04222445       0.01333243
Cu       9.30783697      10.93584481       5.44582678      -0.09188916      -0.01206659      -0.10906797
Cu      10.96353914       3.66525064       3.62128058       0.00161774       0.02873151       0.01004165
Cu       1.94110626       5.46833392       3.61956019       0.05620976       0.06012128      -0.01749472
Cu      11.01416292       5.50606669       5.41491491       0.01417417       0.01427714       0.10042265
Cu       1.95567275       3.69857114       5.42511546      -0.09195336       0.02282361       0.03319685
Cu       3.74286380       3.67499387       3.61976665      -0.06363431       0.03729541      -0.03349568
Cu       5.57175922       5.49097276       3.61399175      -0.01466222      -0.08773974       0.05437995
Cu       3.78164289       5.50126034       5.43139414       0.06067226       0.00644334      -0.00823240
Cu       5.56698274       3.69883705       5.43292771       0.05233010       0.01399663      -0.00911809
Cu       7.34979996       3.67238198       3.62072383      -0.04352818      -0.03135299       0.01782902
Cu       9.18106345       5.48459085       3.62771079       0.08413566      -0.02549364      -0.04912470