120
Lattice="15.9435 0.0 0.0 -6.3774 11.04598082 0.0 0.0 0.0 15.629376" Properties=species:S:1:pos:R:3:forces:R:3 energy=-180.57436504 stress="0.0010954731439806065 -0.00016727848635450515 -7.109078894381031e-09 -0.00016727848635450515 0.0036892826254377466 1.559128979645638e-08 -7.109078894381031e-09 1.559128979645638e-08 0.004906826137604317" free_energy=-180.57859807 pbc="T T T"
Mg       0.00000000       0.00000000       0.00000000      -0.00043659      -0.00140047       0.00000309
Mg       0.00000003       1.84099684       2.60489605      -0.00331418       0.00371128       0.00000097
Mg       3.18870000       0.00000000       0.00000000      -0.00031406      -0.00088072       0.00000646
Mg       3.18870003       1.84099684       2.60489605       0.00003901       0.00094275       0.00000438
Mg       6.37740000       0.00000000       0.00000000       0.00230985      -0.00583922       0.00000591
Mg       6.37740003       1.84099684       2.60489605      -0.00204311      -0.00041047       0.00000636
Mg       9.56610000       0.00000000       0.00000000      -0.00337310       0.00320994       0.00000424
Mg       9.56610003       1.84099684       2.60489605      -0.00006010       0.00287502       0.00000568
Mg      12.75480000       0.00000000       0.00000000      -0.00067823      -0.00181864       0.00000768
Mg      12.75480003       1.84099684       2.60489605       0.00156698       0.00201249       0.00000494
Mg      -1.59435000       2.76149521       0.00000000      -0.00043775      -0.00139974       0.00000588
Mg      -1.59434997       4.60249205       2.60489605      -0.00331657       0.00371186      -0.00000051
Mg       1.59435000       2.76149521       0.00000000      -0.00031223      -0.00088034       0.00000515
Mg       1.59435003       4.60249205       2.60489605       0.00003657       0.00094456       0.00000321
Mg       4.78305000       2.76149521       0.00000000       0.00231380      -0.00583930       0.00000432
Mg       4.78305003       4.60249205       2.60489605      -0.00204026      -0.00041246       0.00000603
Mg       7.97175000       2.76149521       0.00000000      -0.00337495       0.00320763       0.00000880
Mg       7.97175003       4.60249205       2.60489605      -0.00005966       0.00287279       0.00000373
Mg      11.16045000       2.76149521       0.00000000      -0.00067731      -0.00181601       0.00000414
Mg      11.16045003       4.60249205       2.60489605       0.00156757       0.00201367       0.00000452
Mg      -3.18870000       5.52299041       0.00000000      -0.00043842      -0.00139827       0.00000549
Mg      -3.18869997       7.36398725       2.60489605      -0.00331583       0.00371398       0.00000074
Mg       0.00000000       5.52299041       0.00000000      -0.00031721      -0.00088033       0.00000619
Mg       0.00000003       7.36398725       2.60489605       0.00003658       0.00094601       0.00000214
Mg       3.18870000       5.52299041       0.00000000       0.00231194      -0.00583763       0.00000680
Mg       3.18870003       7.36398725       2.60489605      -0.00204232      -0.00040879       0.00000737
Mg       6.37740000       5.52299041       0.00000000      -0.00337094       0.00320895       0.00000532
Mg       6.37740003       7.36398725       2.60489605      -0.00005997       0.00287542       0.00000662
Mg       9.56610000       5.52299041       0.00000000      -0.00067523      -0.00181606       0.00000490
Mg       9.56610003       7.36398725       2.60489605       0.00156696       0.00201112       0.00000415
Mg      -4.78305000       8.28448562       0.00000000      -0.00043505      -0.00139883       0.00000636
Mg      -4.78304997      10.12548246       2.60489605      -0.00331425       0.00371130       0.00000098
Mg      -1.59435000       8.28448562       0.00000000      -0.00031148      -0.00087952       0.00000668
Mg      -1.59434997      10.12548246       2.60489605       0.00003606       0.00094412       0.00000251
Mg       1.59435000       8.28448562       0.00000000       0.00230991      -0.00583541       0.00000541
Mg       1.59435003      10.12548246       2.60489605      -0.00204287      -0.00040703       0.00000388
Mg       4.78305000       8.28448562       0.00000000      -0.00337408       0.00320928       0.00000537
Mg       4.78305003      10.12548246       2.60489605      -0.00006061       0.00287650       0.00000677
Mg       7.97175000       8.28448562       0.00000000      -0.00067513      -0.00181621       0.00000417
Mg       7.97175003      10.12548246       2.60489605       0.00156803       0.00201222       0.00000339
Mg       0.00000000       0.00000000       5.20979195      -0.00043828      -0.00139902      -0.00000190
Mg       0.00000003       1.84099684       7.81468800      -0.00331727       0.00371157      -0.00000628
Mg       3.18870000       0.00000000       5.20979195      -0.00031233      -0.00087904      -0.00000182
Mg       3.18870003       1.84099684       7.81468800       0.00003840       0.00094169      -0.00000486
Mg       6.37740000       0.00000000       5.20979195       0.00231319      -0.00583694       0.00000014
Mg       6.37740003       1.84099684       7.81468800      -0.00203890      -0.00040922      -0.00000816
Mg       9.56610000       0.00000000       5.20979195      -0.00337408       0.00321097      -0.00000089
Mg       9.56610003       1.84099684       7.81468800      -0.00005913       0.00287683      -0.00000707
Mg      12.75480000       0.00000000       5.20979195      -0.00067825      -0.00181608       0.00000109
Mg      12.75480003       1.84099684       7.81468800       0.00156770       0.00201421      -0.00000509
Mg      -1.59435000       2.76149521       5.20979195      -0.00044089      -0.00139718      -0.00000310
Mg      -1.59434997       4.60249205       7.81468800      -0.00331737       0.00371408      -0.00000319
Mg       1.59435000       2.76149521       5.20979195      -0.00031220      -0.00088014       0.00000014
Mg       1.59435003       4.60249205       7.81468800       0.00003742       0.00094473      -0.00000268
Mg       4.78305000       2.76149521       5.20979195       0.00231506      -0.00583794       0.00000016
Mg       4.78305003       4.60249205       7.81468800      -0.00204025      -0.00041126      -0.00000700
Mg       7.97175000       2.76149521       5.20979195      -0.00337089       0.00320808      -0.00000262
Mg       7.97175003       4.60249205       7.81468800      -0.00005790       0.00287556      -0.00000666
Mg      11.16045000       2.76149521       5.20979195      -0.00067911      -0.00181805       0.00000176
Mg      11.16045003       4.60249205       7.81468800       0.00156663       0.00201158      -0.00000366
Mg      -3.18870000       5.52299041       5.20979195      -0.00043856      -0.00140040       0.00000053
Mg      -3.18869997       7.36398725       7.81468800      -0.00331555       0.00371146      -0.00000241
Mg       0.00000000       5.52299041       5.20979195      -0.00031254      -0.00087820      -0.00000090
Mg       0.00000003       7.36398725       7.81468800       0.00003791       0.00094747      -0.00000366
Mg       3.18870000       5.52299041       5.20979195       0.00231235      -0.00583599       0.00000021
Mg       3.18870003       7.36398725       7.81468800      -0.00204089      -0.00040786      -0.00000688
Mg       6.37740000       5.52299041       5.20979195      -0.00337134       0.00320729      -0.00000047
Mg       6.37740003       7.36398725       7.81468800      -0.00005720       0.00287542      -0.00000585
Mg       9.56610000       5.52299041       5.20979195      -0.00067642      -0.00181978       0.00000214
Mg       9.56610003       7.36398725       7.81468800       0.00157004       0.00201038      -0.00000278
Mg      -4.78305000       8.28448562       5.20979195      -0.00043633      -0.00140038       0.00000147
Mg      -4.78304997      10.12548246       7.81468800      -0.00331338       0.00371237      -0.00000397
Mg      -1.59435000       8.28448562       5.20979195      -0.00031453      -0.00087728      -0.00000094
Mg      -1.59434997      10.12548246       7.81468800       0.00003697       0.00094322      -0.00000487
Mg       1.59435000       8.28448562       5.20979195       0.00230988      -0.00583422      -0.00000013
Mg       1.59435003      10.12548246       7.81468800      -0.00204237      -0.00040968      -0.00000735
Mg       4.78305000       8.28448562       5.20979195      -0.00337264       0.00321085       0.00000078
Mg       4.78305003      10.12548246       7.81468800      -0.00005982       0.00287717      -0.00000907
Mg       7.97175000       8.28448562       5.20979195      -0.00067658      -0.00182031      -0.00000137
Mg       7.97175003      10.12548246       7.81468800       0.00156760       0.00201025      -0.00000456
Mg       0.00000000       0.00000000      10.41958405      -0.00043539      -0.00139921      -0.00000353
Mg       0.00000003       1.84099684      13.02447995      -0.00331661       0.00371387       0.00000046
Mg       3.18870000       0.00000000      10.41958405      -0.00031369      -0.00088117      -0.00000388
Mg       3.18870003       1.84099684      13.02447995       0.00003618       0.00094242       0.00000091
Mg       6.37740000       0.00000000      10.41958405       0.00231179      -0.00583689      -0.00000453
Mg       6.37740003       1.84099684      13.02447995      -0.00204172      -0.00040801      -0.00000065
Mg       9.56610000       0.00000000      10.41958405      -0.00337198       0.00320913      -0.00000664
Mg       9.56610003       1.84099684      13.02447995      -0.00006120       0.00288120      -0.00000253
Mg      12.75480000       0.00000000      10.41958405      -0.00067595      -0.00181732      -0.00000499
Mg      12.75480003       1.84099684      13.02447995       0.00157064       0.00201427       0.00000025
Mg      -1.59435000       2.76149521      10.41958405      -0.00043768      -0.00140023      -0.00000564
Mg      -1.59434997       4.60249205      13.02447995      -0.00331913       0.00371459      -0.00000021
Mg       1.59435000       2.76149521      10.41958405      -0.00031363      -0.00088033      -0.00000360
Mg       1.59435003       4.60249205      13.02447995       0.00003497       0.00094551       0.00000107
Mg       4.78305000       2.76149521      10.41958405       0.00231315      -0.00583696      -0.00000593
Mg       4.78305003       4.60249205      13.02447995      -0.00203865      -0.00041029      -0.00000088
Mg       7.97175000       2.76149521      10.41958405      -0.00336958       0.00321053      -0.00000531
Mg       7.97175003       4.60249205      13.02447995      -0.00005701       0.00287917      -0.00000104
Mg      11.16045000       2.76149521      10.41958405      -0.00067655      -0.00181762      -0.00000432
Mg      11.16045003       4.60249205      13.02447995       0.00157015       0.00201489      -0.00000050
Mg      -3.18870000       5.52299041      10.41958405      -0.00043975      -0.00140016      -0.00000472
Mg      -3.18869997       7.36398725      13.02447995      -0.00331649       0.00371715       0.00000117
Mg       0.00000000       5.52299041      10.41958405      -0.00031644      -0.00087944      -0.00000308
Mg       0.00000003       7.36398725      13.02447995       0.00003305       0.00094903       0.00000010
Mg       3.18870000       5.52299041      10.41958405       0.00231303      -0.00583681      -0.00000469
Mg       3.18870003       7.36398725      13.02447995      -0.00204293      -0.00040834      -0.00000067
Mg       6.37740000       5.52299041      10.41958405      -0.00337234       0.00320723      -0.00000506
Mg       6.37740003       7.36398725      13.02447995      -0.00005799       0.00287586      -0.00000119
Mg       9.56610000       5.52299041      10.41958405      -0.00067428      -0.00181836      -0.00000404
Mg       9.56610003       7.36398725      13.02447995       0.00156822       0.00201420       0.00000200
Mg      -4.78305000       8.28448562      10.41958405      -0.00043666      -0.00139945      -0.00000251
Mg      -4.78304997      10.12548246      13.02447995      -0.00331367       0.00371190      -0.00000074
Mg      -1.59435000       8.28448562      10.41958405      -0.00031443      -0.00088187      -0.00000515
Mg      -1.59434997      10.12548246      13.02447995       0.00003325       0.00094356       0.00000254
Mg       1.59435000       8.28448562      10.41958405       0.00231401      -0.00583761      -0.00000536
Mg       1.59435003      10.12548246      13.02447995      -0.00204262      -0.00040765      -0.00000144
Mg       4.78305000       8.28448562      10.41958405      -0.00337474       0.00320805      -0.00000552
Mg       4.78305003      10.12548246      13.02447995      -0.00005918       0.00287881      -0.00000069
Mg       7.97175000       8.28448562      10.41958405      -0.00067535      -0.00181982      -0.00000472
Mg       7.97175003      10.12548246      13.02447995       0.00156982       0.00201278       0.00000117
120
Lattice="15.9435 0.0 0.0 -6.3774 11.04598082 0.0 0.0 0.0 15.629376" Properties=species:S:1:pos:R:3:forces:R:3 energy=-180.55933566 stress="0.001119211313359841 -0.00018469491200804323 -1.1103644734946316e-07 -0.00018469491200804323 0.0036446624262213177 2.4947124730881607e-06 -1.1103644734946316e-07 2.4947124730881607e-06 0.004953696070060643" free_energy=-180.56355494 pbc="T T T"
Mg       0.00766155       0.00236318      15.62046741      -0.01334953      -0.01168479       0.01755476
Mg       0.00441609       1.84539612       2.59970913      -0.00153364      -0.00172632       0.00495590
Mg       3.19611169       0.00041224      15.61743484      -0.01471021      -0.01090820       0.02764101
Mg       3.19219507       1.83662418       2.60458612      -0.01759275       0.01661814      -0.00800943
Mg       6.38257156       0.00318323      15.62522031      -0.00712893      -0.01464743       0.02862643
Mg       6.36601931       1.84009262       2.60930901       0.04205717       0.00561820      -0.01771467
Mg       3.17769079      11.04021935       0.00112985       0.02583918       0.01547539      -0.00607405
Mg       9.55949792       1.84232744       2.59339830       0.01507462      -0.01056731       0.03342128
Mg      12.74839055       0.00124599      15.62888930       0.00795304      -0.00520344      -0.00395578
Mg      12.76402453       1.83139114       2.60285204      -0.02554360       0.02886305       0.00262272
Mg      14.34566957       2.75382234      15.62780572       0.01075075       0.02144112      -0.00033376
Mg      -1.59339766       4.60522593       2.60270341      -0.00823485      -0.00676732       0.00991715
Mg       1.59726549       2.75935880       0.00336438      -0.00872198       0.00099743      -0.00727942
Mg       1.60182081       4.60303363       2.60217091      -0.01376972      -0.00940404       0.00552790
Mg       4.77930219       2.76482524       0.00077897       0.00618099      -0.00799045       0.00487235
Mg       4.78038603       4.60389488       2.60899110       0.01271115       0.00004008      -0.00803030
Mg       7.96125765       2.77933712      15.62468984       0.02149672      -0.04908942       0.01317923
Mg       7.97716747       4.60409371       2.60121174      -0.02139997      -0.00074603       0.01372791
Mg      11.15973034       2.76206540       0.00146650      -0.00396481      -0.00567115      -0.01109456
Mg      11.15879895       4.59777011       2.61237127       0.02101669       0.00788743      -0.01894852
Mg      12.75389891       5.52237979       0.00001407       0.00534359      -0.00296381      -0.00091686
Mg      -3.18663120       7.36756902       2.60328248      -0.00149959      -0.00170369       0.01011059
Mg       0.00334109       5.52093288       0.00965630      -0.01324207       0.00539035      -0.01293806
Mg       0.00461057       7.36525201       2.60989120      -0.01024084       0.01233547      -0.01230358
Mg       3.18368695       5.52182771      15.62915219       0.02855439       0.00156426      -0.00382202
Mg       3.18562472       7.35323366       2.60409661       0.01027204       0.03614687      -0.00477878
Mg       6.37957141       5.52071704       0.00683207      -0.00733705       0.01779258      -0.01135599
Mg       6.37862137       7.37177124       2.60764073       0.00842735      -0.01286534       0.00051555
Mg       9.57695787       5.52047988       0.00161295      -0.02131824       0.00992537      -0.01711306
Mg       9.57129178       7.36089868       2.59749523      -0.00560817       0.01478231       0.01579975
Mg      -4.78448632       8.28949795      15.62344434       0.00992881      -0.00639650       0.01344116
Mg      -4.78625098      10.12745946       2.61082099       0.01718117       0.00109791      -0.01877053
Mg      -1.59311779       8.27768969      15.62595957      -0.00053034       0.01647887       0.00885198
Mg      -1.59435807      10.13880468       2.60822824       0.00885021      -0.04070878      -0.01371089
Mg       1.59862560       8.28715841      15.62538942      -0.00817410      -0.01410896       0.01424997
Mg       1.60594067      10.11936375       2.61940074      -0.03046562       0.01466108      -0.03119758
Mg       4.80136073       8.28429353       0.00171454      -0.05101346      -0.00725355      -0.00598765
Mg       4.78740465      10.12386565       2.60555374      -0.00690873       0.00411803       0.00377351
Mg       7.96818522       8.27942015      15.62353265       0.02162360       0.01065199       0.01675260
Mg       7.98297017      10.12559888       2.60139195      -0.01955998       0.00519106      -0.00980725
Mg      15.93632488       0.00937373       5.21009860       0.02781178      -0.01627648      -0.00559589
Mg       0.00085202       1.83018371       7.81432493       0.00014030       0.03649314       0.00727171
Mg       3.19332518       0.01295064       5.20831388      -0.01733960      -0.04369517       0.01578287
Mg       3.18745421       1.83868105       7.81267009       0.00416859       0.00909491       0.00148281
Mg       6.38298750       0.00298142       5.21301676      -0.00916979      -0.01090351       0.00080042
Mg       6.37614225       1.84207658       7.81309974       0.00279739       0.00604211       0.01358176
Mg       3.18930850      11.03677963       5.21832387       0.01374714       0.04148317      -0.01255294
Mg       9.57119411       1.84567128       7.81504857      -0.01025469      -0.01178020      -0.00108148
Mg      12.75978164       0.00397887       5.20781436      -0.02789311      -0.01172446      -0.00314125
Mg      12.75816124       1.83991710       7.80786890      -0.00610424       0.01604497       0.01715727
Mg      14.34326758       2.75585027       5.20354942       0.01749168       0.02882740       0.00668297
Mg      -1.58961370       4.60119204       7.81115592      -0.01048961       0.00290286       0.00407065
Mg       1.59238229       2.76555206       5.20747708       0.00780357      -0.00066325       0.00312541
Mg       1.59436151       4.60501053       7.81254177      -0.00514855      -0.02124297       0.00551860
Mg       4.78766931       2.75685313       5.20241660      -0.01194077       0.02994558       0.02967335
Mg       4.77727453       4.60102094       7.82085004       0.01202258      -0.00092194      -0.01596277
Mg       7.97426139       2.76407753       5.21740439      -0.00516701      -0.00126170      -0.02471958
Mg       7.97876683       4.60796025       7.81296908      -0.03001310      -0.00349944      -0.00033918
Mg      11.15933057       2.77265916       5.21185987      -0.00603101      -0.04999278      -0.01687964
Mg      11.16066119       4.60332646       7.81005889       0.00785282       0.00314953       0.02308003
Mg      12.74715353       5.51684465       5.21670951       0.02520663       0.02921960      -0.01721761
Mg      -3.19271649       7.36811270       7.81622109       0.00903506      -0.01239610       0.00017803
Mg       0.00420554       5.52289298       5.20435105      -0.01821904      -0.00696803       0.00996770
Mg       0.00462932       7.35769391       7.81820383      -0.01587584       0.00986227      -0.00586525
Mg       3.18862653       5.53551953       5.20179549       0.00262678      -0.04264519       0.02997349
Mg       3.17953529       7.35745786       7.82205616       0.02711564       0.01678830      -0.02142338
Mg       6.37803583       5.53503219       5.20780061      -0.00328008      -0.02345307       0.01223526
Mg       6.37579513       7.37486566       7.81679218      -0.00194747      -0.02500095      -0.00016980
Mg       9.56148267       5.52337304       5.20494934       0.00171666       0.01579973       0.00754635
Mg       9.55932334       7.36313130       7.81410643       0.00933495       0.00958544       0.00144001
Mg      11.15985209       8.28539890       5.21336451       0.00293342       0.00510545      -0.00880748
Mg      -4.79160496      10.12371433       7.81768337       0.02143613       0.00310223      -0.01206936
Mg      -1.59121414       8.28066161       5.21573517      -0.02229282       0.01188735      -0.01034261
Mg      -1.59168677      10.12748288       7.81886651      -0.00764781      -0.00283233      -0.01122096
Mg       1.58297160       8.28969490       5.21792157       0.02823528      -0.01993027      -0.00827950
Mg       1.59378538      10.12226189       7.81822305       0.00328740       0.00793301      -0.00021506
Mg       4.77839686       8.28192770       5.21291767       0.00139595       0.01924557      -0.00430258
Mg       4.79190024      10.12368229       7.81646287      -0.02271073       0.00991094      -0.00758541
Mg       7.97212732       8.29692460       5.20730703       0.00433327      -0.02748924      -0.00273547
Mg       7.97045622      10.12760825       7.81103151       0.00712115       0.00120756       0.01520558
Mg       9.56968101      11.03931965      10.42637470      -0.01723986       0.01452043      -0.00937237
Mg       0.00021980       1.84446462      13.02481786       0.00907975      -0.01196447      -0.00581214
Mg      -3.19201504      11.04574234      10.41967892       0.01187641      -0.02617293       0.00197550
Mg       3.19086908       1.84253566      13.02762958      -0.01635962      -0.00193531      -0.00173535
Mg       0.00478873      11.04471064      10.42109932      -0.01267988      -0.00409834      -0.00194331
Mg       6.36871790       1.83635797      13.02963858       0.01989969      -0.00248734      -0.00928832
Mg       3.18892292      11.04339462      10.41413206      -0.00530071       0.01742320       0.01385414
Mg       9.56035801       1.84184539      13.02635594       0.02231398      -0.00814450       0.00668404
Mg      12.75267948       0.00534935      10.41721058       0.01192692      -0.01061510       0.00417253
Mg      12.76151926       1.84214286      13.02205505      -0.02399995       0.00964299       0.00523145
Mg      -1.59294088       2.76230013      10.41713305      -0.00129244      -0.00466535      -0.00238005
Mg      -1.58397891       4.60637670      13.02584892      -0.02888132      -0.00831720       0.00701624
Mg       1.60313541       2.75438424      10.42081252      -0.02891254       0.02197219      -0.00050941
Mg       1.58956214       4.60496038      13.03651441       0.02485652      -0.00935044      -0.02756928
Mg       4.78037369       2.74621177      10.43030627       0.01467188       0.03500621      -0.03024905
Mg       4.79986118       4.60074236      13.02545741      -0.04945138       0.01120117      -0.00337253
Mg       7.97342837       2.76207457      10.42328134      -0.02153812      -0.01011620      -0.01414310
Mg       7.96738161       4.59415520      13.02163493       0.02533076       0.03455571       0.00430968
Mg      11.15289300       2.75002716      10.42254441       0.02639888       0.02838291      -0.01306291
Mg      11.16308026       4.61034430      13.01340419      -0.00997990      -0.03045106       0.03118002
Mg      12.74877919       5.52475622      10.42445651       0.01188022      -0.02222878      -0.02487539
Mg      -3.19820864       7.35895547      13.01750393       0.03124217       0.02057106       0.01507380
Mg      -0.01013787       5.52235394      10.42484818       0.03060865      -0.01714209      -0.01244264
Mg      -0.00643384       7.36243562      13.02013264       0.01591166       0.01029035       0.01552350
Mg       3.17607587       5.52553386      10.42026721       0.02860249      -0.02407193       0.01655307
Mg       3.18129871       7.35889594      13.02695830       0.01867557       0.00596495      -0.00129481
Mg       6.37711008       5.52162745      10.41724684      -0.01742956       0.00992104      -0.00337855
Mg       6.37867985       7.36265256      13.02166588      -0.00715736      -0.00574402      -0.00331337
Mg       9.56359990       5.51330364      10.41426272      -0.00264245       0.02956370       0.01412111
Mg       9.56736352       7.37105425      13.02723572      -0.01800223      -0.02663929      -0.01653584
Mg      11.15867055       8.27759568      10.41990836       0.00279428       0.00860485      -0.00932826
Mg      -4.78750752      10.11683688      13.01741406       0.01725829       0.02902647       0.01194250
Mg      -1.58149131       8.27652433      10.40929727      -0.03945082       0.02574888       0.02554409
Mg      -1.59146745      10.12302760      13.02553946      -0.01387411      -0.00859607      -0.01683825
Mg       1.59765404       8.28861063      10.41822617      -0.01482292      -0.01797512       0.01240319
Mg       1.59269972      10.12689303      13.02115480       0.00118672      -0.00716931       0.00036522
Mg       4.77127250       8.29447925      10.41953529       0.03125733      -0.03758619       0.00358817
Mg       4.78219055      10.11915830      13.01966172      -0.00769129       0.02239204       0.01542152
Mg       7.96622899       8.29142569      10.42296390       0.00383930      -0.01803858      -0.00687811
Mg       7.96841054      10.12599576      13.03070482      -0.00037989       0.00948621      -0.01304719
120
Lattice="15.9435 0.0 0.0 -6.3774 11.04598082 0.0 0.0 0.0 15.629376" Properties=species:S:1:pos:R:3:forces:R:3 energy=-180.51415748 stress="0.001103797688120653 -0.0001984034942672408 4.1862051367664046e-06 -0.0001984034942672408 0.003584863394855999 5.912363142129805e-06 4.1862051367664046e-06 5.912363142129805e-06 0.00492376840829258" free_energy=-180.51835965 pbc="T T T"
Mg       0.01531788       0.00472160      15.61156554      -0.02660744      -0.02046025       0.03042822
Mg       0.00883171       1.84979452       2.59452424      -0.00609446      -0.00933723       0.01217381
Mg       3.20351763       0.00082005      15.60550447      -0.02367429      -0.01777357       0.05169415
Mg       3.19568309       1.83225814       2.60427307      -0.03445267       0.03371436      -0.01635838
Mg       6.38774035       0.00636050      15.62107586      -0.01206556      -0.02264063       0.05469370
Mg       6.35465548       1.83919060       2.61371477       0.09475667       0.01415669      -0.03275659
Mg       3.16669178      11.03446395       0.00225719       0.04893968       0.03042359      -0.01100628
Mg       9.55290191       1.84365384       2.58191384       0.02340666      -0.02496881       0.06394073
Mg      12.74198423       0.00248987      15.62840104       0.01921401      -0.00844706      -0.00881546
Mg      12.77323888       1.82179694       2.60080913      -0.05919772       0.05368523       0.00296309
Mg      14.34219360       2.74615775      15.62623528       0.02134655       0.03810765       0.00055968
Mg      -1.59244855       4.60795704       2.60051451      -0.01249938      -0.01280897       0.01550330
Mg       1.60017735       2.75722262       0.00672579      -0.01516558       0.00190717      -0.01605592
Mg       1.60928609       4.60357146       2.59944812      -0.03325073      -0.02212500       0.01746720
Mg       4.77555671       2.76815207       0.00155966       0.00599771      -0.01157354       0.01202191
Mg       4.77772736       4.60529761       2.61308288       0.03178266      -0.00063835      -0.01920855
Mg       7.95077393       2.79715936      15.62000885       0.04352744      -0.09152690       0.02298457
Mg       7.98257640       4.60569494       2.59753290      -0.04317236      -0.00054517       0.02886592
Mg      11.15900915       2.76263327       0.00292848      -0.00677672      -0.01050023      -0.02238922
Mg      11.15715630       4.59305127       2.61983883       0.04036181       0.01255618      -0.03671068
Mg      12.75299985       5.52176784       0.00002782       0.00963487      -0.00378752      -0.00191547
Mg      -3.18456295       7.37115002       2.60167281       0.00188206      -0.00302357       0.01560759
Mg       0.00667704       5.51887733       0.01930744      -0.02317713       0.01169955      -0.02715055
Mg       0.00921710       7.36652153       2.61488135      -0.02415164       0.01974001      -0.02787455
Mg       3.17868522       5.52066556      15.62892681       0.05393032       0.00733118      -0.00589349
Mg       3.18255340       7.34249442       2.60329514       0.02676050       0.07517554      -0.01025198
Mg       6.38173998       5.51845051       0.01365976      -0.01530793       0.03543022      -0.02078734
Mg       6.37984602       7.37955004       2.61038571       0.01506614      -0.03230228      -0.00110563
Mg       9.58780746       5.51797322       0.00321887      -0.03759131       0.01617425      -0.03400962
Mg       9.57648148       7.35781586       2.59010050      -0.01256688       0.02400554       0.03067784
Mg      -4.78591855       8.29450763      15.61751784       0.01907308      -0.01180501       0.02814539
Mg      -4.78944522      10.12943692       2.61673843       0.03497016       0.00000069      -0.03433231
Mg      -1.59188555       8.27090005      15.62254674      -0.00011464       0.03281555       0.02047594
Mg      -1.59436253      10.15211067       2.61155510       0.01850496      -0.08783655      -0.02628426