120
Lattice="15.7043475 0.0 0.0 -6.281739 10.88029111 0.0 0.0 0.0 15.167424" Properties=species:S:1:pos:R:3:forces:R:3 energy=-179.4106241 stress="-0.012859024599742808 0.0006340959896747983 -2.007269334884056e-08 0.0006340959896747983 -0.010104303220899927 3.540808127113573e-08 -2.007269334884056e-08 3.540808127113573e-08 -0.012780798617430433" free_energy=-179.4126708 pbc="T T T"
Mg       0.00000000       0.00000000       0.00000000       0.00036338      -0.00201195      -0.00001003
Mg       0.00000003       1.81338189       2.52790405      -0.00235682      -0.00049608      -0.00000963
Mg       3.14086950       0.00000000       0.00000000       0.00174389      -0.00439523      -0.00001058
Mg       3.14086953       1.81338189       2.52790405      -0.00395017      -0.00381284      -0.00000737
Mg       6.28173900       0.00000000       0.00000000       0.00410619       0.00556898      -0.00000836
Mg       6.28173903       1.81338189       2.52790405       0.00343651       0.00583373      -0.00000972
Mg       9.42260850       0.00000000       0.00000000      -0.00351955      -0.00919215      -0.00000987
Mg       9.42260853       1.81338189       2.52790405      -0.00417696       0.00015291      -0.00000882
Mg      12.56347800       0.00000000       0.00000000      -0.00135288       0.00050500      -0.00000992
Mg      12.56347803       1.81338189       2.52790405       0.00047666       0.00180427      -0.00000787
Mg      -1.57043475       2.72007278       0.00000000       0.00036318      -0.00201264      -0.00000943
Mg      -1.57043472       4.53345467       2.52790405      -0.00235593      -0.00049764      -0.00000908
Mg       1.57043475       2.72007278       0.00000000       0.00174315      -0.00439429      -0.00000928
Mg       1.57043478       4.53345467       2.52790405      -0.00395178      -0.00381184      -0.00000750
Mg       4.71130425       2.72007278       0.00000000       0.00410408       0.00556949      -0.00000950
Mg       4.71130428       4.53345467       2.52790405       0.00343729       0.00583390      -0.00000945
Mg       7.85217375       2.72007278       0.00000000      -0.00351975      -0.00919162      -0.00001063
Mg       7.85217378       4.53345467       2.52790405      -0.00417622       0.00015343      -0.00000816
Mg      10.99304325       2.72007278       0.00000000      -0.00135351       0.00050580      -0.00000990
Mg      10.99304328       4.53345467       2.52790405       0.00047756       0.00180326      -0.00000903
Mg      -3.14086950       5.44014555       0.00000000       0.00036448      -0.00201261      -0.00001081
Mg      -3.14086947       7.25352744       2.52790405      -0.00235641      -0.00049699      -0.00000902
Mg       0.00000000       5.44014555       0.00000000       0.00174283      -0.00439316      -0.00000922
Mg       0.00000003       7.25352744       2.52790405      -0.00395148      -0.00381166      -0.00000768
Mg       3.14086950       5.44014555       0.00000000       0.00410389       0.00557016      -0.00000888
Mg       3.14086953       7.25352744       2.52790405       0.00343660       0.00583437      -0.00000936
Mg       6.28173900       5.44014555       0.00000000      -0.00351958      -0.00919278      -0.00001047
Mg       6.28173903       7.25352744       2.52790405      -0.00417548       0.00015387      -0.00000939
Mg       9.42260850       5.44014555       0.00000000      -0.00135304       0.00050486      -0.00001007
Mg       9.42260853       7.25352744       2.52790405       0.00047819       0.00180423      -0.00000827
Mg      -4.71130425       8.16021833       0.00000000       0.00036368      -0.00201332      -0.00000971
Mg      -4.71130422       9.97360022       2.52790405      -0.00235635      -0.00049781      -0.00000970
Mg      -1.57043475       8.16021833       0.00000000       0.00174539      -0.00439380      -0.00000968
Mg      -1.57043472       9.97360022       2.52790405      -0.00395032      -0.00381266      -0.00000860
Mg       1.57043475       8.16021833       0.00000000       0.00410510       0.00556840      -0.00000859
Mg       1.57043478       9.97360022       2.52790405       0.00343707       0.00583384      -0.00000880
Mg       4.71130425       8.16021833       0.00000000      -0.00351912      -0.00919047      -0.00000921
Mg       4.71130428       9.97360022       2.52790405      -0.00417690       0.00015271      -0.00000859
Mg       7.85217375       8.16021833       0.00000000      -0.00135220       0.00050535      -0.00001067
Mg       7.85217378       9.97360022       2.52790405       0.00047889       0.00180588      -0.00000854
Mg       0.00000000       0.00000000       5.05580795       0.00036158      -0.00201292      -0.00000042
Mg       0.00000003       1.81338189       7.58371200      -0.00235685      -0.00049677       0.00000960
Mg       3.14086950       0.00000000       5.05580795       0.00174585      -0.00439663      -0.00000111
Mg       3.14086953       1.81338189       7.58371200      -0.00395065      -0.00381192       0.00000910
Mg       6.28173900       0.00000000       5.05580795       0.00410507       0.00556762      -0.00000012
Mg       6.28173903       1.81338189       7.58371200       0.00343709       0.00583356       0.00000972
Mg       9.42260850       0.00000000       5.05580795      -0.00351994      -0.00919310       0.00000089
Mg       9.42260853       1.81338189       7.58371200      -0.00417752       0.00015378       0.00000966
Mg      12.56347800       0.00000000       5.05580795      -0.00135191       0.00050649       0.00000103
Mg      12.56347803       1.81338189       7.58371200       0.00047583       0.00180560       0.00001037
Mg      -1.57043475       2.72007278       5.05580795       0.00036178      -0.00201202       0.00000092
Mg      -1.57043472       4.53345467       7.58371200      -0.00235799      -0.00049779       0.00001008
Mg       1.57043475       2.72007278       5.05580795       0.00174508      -0.00439766      -0.00000053
Mg       1.57043478       4.53345467       7.58371200      -0.00395073      -0.00381162       0.00001009
Mg       4.71130425       2.72007278       5.05580795       0.00410543       0.00556623       0.00000105
Mg       4.71130428       4.53345467       7.58371200       0.00343768       0.00583206       0.00000913
Mg       7.85217375       2.72007278       5.05580795      -0.00351928      -0.00919435      -0.00000086
Mg       7.85217378       4.53345467       7.58371200      -0.00417634       0.00015279       0.00000994
Mg      10.99304325       2.72007278       5.05580795      -0.00135280       0.00050423       0.00000115
Mg      10.99304328       4.53345467       7.58371200       0.00047890       0.00180631       0.00000902
Mg      -3.14086950       5.44014555       5.05580795       0.00036248      -0.00201313       0.00000009
Mg      -3.14086947       7.25352744       7.58371200      -0.00235631      -0.00049571       0.00001078
Mg       0.00000000       5.44014555       5.05580795       0.00174260      -0.00439670      -0.00000005
Mg       0.00000003       7.25352744       7.58371200      -0.00395123      -0.00381175       0.00000982
Mg       3.14086950       5.44014555       5.05580795       0.00410445       0.00556668      -0.00000011
Mg       3.14086953       7.25352744       7.58371200       0.00343515       0.00583424       0.00001032
Mg       6.28173900       5.44014555       5.05580795      -0.00351922      -0.00919325       0.00000051
Mg       6.28173903       7.25352744       7.58371200      -0.00417751       0.00015259       0.00000953
Mg       9.42260850       5.44014555       5.05580795      -0.00135272       0.00050292       0.00000100
Mg       9.42260853       7.25352744       7.58371200       0.00047777       0.00180456       0.00001154
Mg      -4.71130425       8.16021833       5.05580795       0.00036246      -0.00201360       0.00000112
Mg      -4.71130422       9.97360022       7.58371200      -0.00235693      -0.00049658       0.00000925
Mg      -1.57043475       8.16021833       5.05580795       0.00174557      -0.00439632       0.00000062
Mg      -1.57043472       9.97360022       7.58371200      -0.00395040      -0.00381066       0.00000998
Mg       1.57043475       8.16021833       5.05580795       0.00410486       0.00556859       0.00000024
Mg       1.57043478       9.97360022       7.58371200       0.00343784       0.00583376       0.00000966
Mg       4.71130425       8.16021833       5.05580795      -0.00351911      -0.00919275       0.00000093
Mg       4.71130428       9.97360022       7.58371200      -0.00417677       0.00015378       0.00000969
Mg       7.85217375       8.16021833       5.05580795      -0.00135351       0.00050349       0.00000024
Mg       7.85217378       9.97360022       7.58371200       0.00047815       0.00180495       0.00000823
Mg       0.00000000       0.00000000      10.11161605       0.00036372      -0.00201185       0.00000968
Mg       0.00000003       1.81338189      12.63951995      -0.00235688      -0.00049801       0.00000048
Mg       3.14086950       0.00000000      10.11161605       0.00174420      -0.00439595       0.00000882
Mg       3.14086953       1.81338189      12.63951995      -0.00395115      -0.00381233      -0.00000002
Mg       6.28173900       0.00000000      10.11161605       0.00410568       0.00556831       0.00000867
Mg       6.28173903       1.81338189      12.63951995       0.00343681       0.00583442      -0.00000110
Mg       9.42260850       0.00000000      10.11161605      -0.00351947      -0.00919199       0.00000912
Mg       9.42260853       1.81338189      12.63951995      -0.00417719       0.00015277      -0.00000018
Mg      12.56347800       0.00000000      10.11161605      -0.00135300       0.00050545       0.00001073
Mg      12.56347803       1.81338189      12.63951995       0.00047510       0.00180495       0.00000103
Mg      -1.57043475       2.72007278      10.11161605       0.00036340      -0.00201197       0.00001091
Mg      -1.57043472       4.53345467      12.63951995      -0.00235764      -0.00049783       0.00000040
Mg       1.57043475       2.72007278      10.11161605       0.00174427      -0.00439479       0.00000832
Mg       1.57043478       4.53345467      12.63951995      -0.00395172      -0.00381233       0.00000061
Mg       4.71130425       2.72007278      10.11161605       0.00410414       0.00556819       0.00000877
Mg       4.71130428       4.53345467      12.63951995       0.00343751       0.00583440       0.00000036
Mg       7.85217375       2.72007278      10.11161605      -0.00351909      -0.00919236       0.00000976
Mg       7.85217378       4.53345467      12.63951995      -0.00417645       0.00015262      -0.00000002
Mg      10.99304325       2.72007278      10.11161605      -0.00135221       0.00050504       0.00000928
Mg      10.99304328       4.53345467      12.63951995       0.00047678       0.00180495       0.00000029
Mg      -3.14086950       5.44014555      10.11161605       0.00036301      -0.00201136       0.00000963
Mg      -3.14086947       7.25352744      12.63951995      -0.00235717      -0.00049654       0.00000080
Mg       0.00000000       5.44014555      10.11161605       0.00174323      -0.00439498       0.00000873
Mg       0.00000003       7.25352744      12.63951995      -0.00395121      -0.00381304       0.00000069
Mg       3.14086950       5.44014555      10.11161605       0.00410575       0.00556913       0.00000926
Mg       3.14086953       7.25352744      12.63951995       0.00343671       0.00583410       0.00000038
Mg       6.28173900       5.44014555      10.11161605      -0.00351870      -0.00919169       0.00000887
Mg       6.28173903       7.25352744      12.63951995      -0.00417712       0.00015231       0.00000174
Mg       9.42260850       5.44014555      10.11161605      -0.00135125       0.00050358       0.00000973
Mg       9.42260853       7.25352744      12.63951995       0.00047849       0.00180437      -0.00000090
Mg      -4.71130425       8.16021833      10.11161605       0.00036351      -0.00201216       0.00000994
Mg      -4.71130422       9.97360022      12.63951995      -0.00235617      -0.00049860       0.00000041
Mg      -1.57043475       8.16021833      10.11161605       0.00174413      -0.00439450       0.00000921
Mg      -1.57043472       9.97360022      12.63951995      -0.00395087      -0.00381373       0.00000072
Mg       1.57043475       8.16021833      10.11161605       0.00410476       0.00556850       0.00000988
Mg       1.57043478       9.97360022      12.63951995       0.00343687       0.00583415       0.00000097
Mg       4.71130425       8.16021833      10.11161605      -0.00351920      -0.00919290       0.00000991
Mg       4.71130428       9.97360022      12.63951995      -0.00417870       0.00015200       0.00000097
Mg       7.85217375       8.16021833      10.11161605      -0.00135189       0.00050662       0.00000911
Mg       7.85217378       9.97360022      12.63951995       0.00047585       0.00180423       0.00000040
120
Lattice="15.7043475 0.0 0.0 -6.281739 10.88029111 0.0 0.0 0.0 15.167424" Properties=species:S:1:pos:R:3:forces:R:3 energy=-179.39117559 stress="-0.012887441441811857 0.0006077986767237691 -4.4780144129288245e-06 0.0006077986767237691 -0.010085079154339387 -6.535421790621102e-07 -4.4780144129288245e-06 -6.535421790621102e-07 -0.012751386934980296" free_energy=-179.39320856 pbc="T T T"
Mg       9.42568611      10.87360321       0.00340721       0.01421727       0.01614296      -0.00623936
Mg      -0.00780201       1.81529540       2.52879772       0.03804374      -0.01099695       0.00638291
Mg      -3.13560396      10.87383605       0.00719315      -0.01230497       0.00978889      -0.03433935
Mg       3.14051738       1.81203284       2.52740974       0.00214755      -0.00614256      -0.00396920
Mg       6.28134890       0.00499786      15.16362320       0.00098887      -0.01294715       0.01511177
Mg       6.28759113       1.81619847       2.52407170      -0.02294438      -0.01365049       0.00785450
Mg       9.41542753       0.00524756      15.16391047       0.03500621      -0.01650368       0.00535356
Mg       9.42654011       1.81719869       2.52856277       0.00737452      -0.01012479       0.00600326
Mg       6.29701157      10.87437669       0.00278444      -0.06179585       0.02493986      -0.01576855
Mg      12.57685628       1.82247313       2.53204370      -0.03970127      -0.03990674      -0.01427493
Mg      -1.56245000       2.71233167       0.00200331      -0.02645002       0.01705511      -0.01757369
Mg      -1.57562073       4.52569506       2.51965161       0.02235650       0.03706954       0.02181614
Mg       1.58348070       2.72108867      15.16569491      -0.02646458      -0.01865725       0.00672527
Mg       1.57900753       4.52833212       2.52778150      -0.03524969       0.02558516      -0.01803978
Mg       4.71526818       2.71750720      15.16562530       0.00609636       0.01003587       0.00702943
Mg       4.70906921       4.53025673       2.53092980       0.00628104       0.01128953      -0.01159152
Mg       7.86007379       2.72184278       0.00224508      -0.02410648      -0.00376726      -0.00788607
Mg       7.84266894       4.52688340       2.53578140       0.03435340       0.03284549      -0.02671916
Mg      10.98535563       2.71621658       0.00094994       0.04276201       0.00126897       0.00022343
Mg      11.00095554       4.53688696       2.52448971      -0.02962375      -0.00491326       0.01179402
Mg      12.56296651       5.43733572      15.15649299       0.01187009       0.01005506       0.02977136
Mg      -3.14387101       7.26273021       2.53041001       0.00621563      -0.03715722      -0.02037266
Mg       0.00231601       5.43302397      15.16470660       0.00789511       0.01861835       0.00961445
Mg      -0.00371301       7.25219635       2.52057909       0.01640830      -0.01115480       0.03889189
Mg       3.15255884       5.43758085      15.15966617      -0.03091226       0.01806457       0.02877571
Mg       3.13867325       7.25688380       2.52837682      -0.00150045      -0.01255567      -0.00787072
Mg       6.28584076       5.43594696      15.16587343      -0.01157371       0.01705164       0.01767772
Mg       6.27003000       7.25558197       2.53335553       0.03632543      -0.01061559      -0.02650820
Mg       9.42327474       5.44632491       0.00787933      -0.00940558      -0.01339261      -0.02355207
Mg       9.42590503       7.24790233       2.53405672      -0.03142423       0.02196609      -0.03179160
Mg      10.98351241       8.16175768      15.15356841       0.03523329      -0.01287353       0.05349476
Mg      -4.70427360       9.97212387       2.52680123      -0.03154816       0.00488821      -0.00230902
Mg      -1.56756290       8.16339048       0.00907421      -0.00597228      -0.02314924      -0.04795559
Mg      -1.57226402       9.97125889       2.52858840       0.01726611       0.01582115       0.00424600
Mg       1.57503273       8.16920806       0.00806937      -0.01053465      -0.03141235      -0.04672286
Mg       1.57140060       9.97697257       2.51985500       0.00218730       0.00006596       0.03301141
Mg       4.71242736       8.16205286      15.15828062       0.00201258      -0.00660209       0.02641804
Mg       4.71617096       9.97518537       2.52406730      -0.01658986       0.01743337       0.00189445
Mg       7.85111757       8.16033160      15.16493639       0.00148567      -0.02436469       0.00757136
Mg       7.85280824       9.96829825       2.52233973       0.00995599       0.00288611       0.03848084
Mg      -6.27991887      10.87917479       5.05712130      -0.01850485       0.01233695      -0.00834747
Mg       0.00673032       1.81174789       7.59288996      -0.01956755       0.00888468      -0.02878408
Mg       3.13215698       0.00969390       5.05263295       0.01949293      -0.03348658       0.01629950
Mg       3.15074034       1.81318931       7.58007834      -0.01703152       0.01095454       0.01758801
Mg      -0.00281189      10.87392266       5.04932251       0.00579946       0.01620167       0.00986752
Mg       6.29569517       1.81491655       7.57306735      -0.02728304      -0.00308287       0.03155468
Mg       3.13707655      10.88011191       5.05867050       0.00938688      -0.00262385      -0.01122003
Mg       9.43102003       1.81891517       7.58972209      -0.01696410      -0.01131955      -0.03728033
Mg       6.27920796      10.87997580       5.06188311       0.00375510      -0.00785648      -0.01864174
Mg      12.56523667       1.81825289       7.58229248       0.00448736      -0.02294812       0.02061143
Mg      14.12839211       2.71512703       5.06873029       0.03533938       0.00764689      -0.02436915
Mg      -1.57172018       4.53595180       7.58874288       0.01140238      -0.00359833      -0.00466024
Mg       1.57334370       2.72741121       5.05152452      -0.02286172      -0.02725803       0.01968510
Mg       1.56659567       4.53643456       7.58097322       0.00899669      -0.01504847       0.01636085
Mg       4.71005117       2.71780348       5.05670753       0.01677267       0.00645362      -0.00646066
Mg       4.71047120       4.54189908       7.58536009      -0.00111342      -0.03054412      -0.00445215
Mg       7.84887565       2.71495665       5.04915597       0.02984144       0.00841833       0.02457010
Mg       7.84792579       4.53295657       7.58256868       0.02442433       0.00567305      -0.00771660
Mg      11.00235225       2.71972308       5.05367313      -0.04781099       0.01612848       0.01670463
Mg      11.00003979       4.53624154       7.60118093      -0.02944077       0.00503890      -0.06951550
Mg      12.56169841       5.43490854       5.05653568      -0.00397681       0.01914597      -0.00286481
Mg      -3.14114495       7.26011796       7.57756161      -0.00145348      -0.00584127       0.01424077
Mg      -0.00931371       5.43460520       5.05241560       0.02235021       0.01869859      -0.00511552
Mg       0.00042308       7.24948302       7.58497332      -0.01463830       0.00442840       0.01124596
Mg       3.13868923       5.42950060       5.05405626      -0.00145913       0.04232096       0.00558421
Mg       3.14197154       7.25490674       7.57969385      -0.00359302      -0.00886450       0.00821427
Mg       6.28198650       5.43903849       5.05529575      -0.01301696      -0.00649205       0.01185916
Mg       6.27942427       7.24725593       7.59147802       0.00194258       0.02315223      -0.02569227
Mg       9.41666698       5.45195383       5.05223845       0.02017588      -0.05947241       0.02599493
Mg       9.42490743       7.25498823       7.58066790      -0.00731973      -0.01124636       0.01669800
Mg      10.98254543       8.16091456       5.04872461       0.03302115       0.00599213       0.02564960
Mg      -4.71829404       9.97304935       7.58537860       0.03069562       0.00085695      -0.00848434
Mg      -1.57179581       8.16495148       5.05660940      -0.00276588      -0.01910888      -0.00505266
Mg      -1.56781759       9.97623271       7.58066289      -0.00468298      -0.00539993      -0.00554061
Mg       1.57421080       8.16348797       5.06013931      -0.02361319      -0.02185172      -0.03078232
Mg       1.57394681       9.96350048       7.58605537      -0.01464711       0.04038197       0.00001289
Mg       4.70597360       8.15902607       5.05054622       0.01249377      -0.00671704       0.02682539
Mg       4.70608676       9.97184262       7.58766266       0.02158633       0.00489068      -0.01465050
Mg       7.84655407       8.16264116       5.06340198      -0.00751822      -0.00049476      -0.02383778
Mg       7.85735333       9.96654555       7.58712133      -0.02219977       0.02204715       0.00398316
Mg       0.00546203       0.00803281      10.11402069      -0.03322207      -0.04010297       0.01015814
Mg      -0.00807257       1.80908842      12.64759554       0.03163264       0.00619195      -0.01565516
Mg      -3.13910829      10.87026253      10.10684210      -0.00517775       0.03358182       0.01298536
Mg       3.14014016       1.81500642      12.64266279      -0.00652099      -0.01467420      -0.01549673
Mg       6.27305569       0.00360529      10.10985481       0.03295680       0.00223524      -0.01599405
Mg       6.28284031       1.80267089      12.64143150       0.00203430       0.05276218      -0.01300276
Mg       9.41876147       0.01095798      10.11320393      -0.00216139      -0.02751009      -0.01244730
Mg       9.42472871       1.81696651      12.63795877      -0.00963986       0.00640481       0.00283117
Mg       6.28379652      10.87932124      10.10802668      -0.00575725      -0.00198374       0.01293325
Mg      12.56278808       1.81737234      12.63736921      -0.01813371      -0.01471899       0.01706028
Mg      14.12566753       2.72293723      10.12033140       0.02154395      -0.02140787      -0.03128490
Mg      -1.56814283       4.52870596      12.63235956      -0.02272885       0.01512572       0.03581745
Mg       1.56681147       2.70939943      10.10860410       0.02679612       0.02986093       0.01930325
Mg       1.56050822       4.53502306      12.63697941       0.04353589      -0.02750785       0.00743970
Mg       4.71542287       2.72687405      10.11703765      -0.01065704      -0.02478597      -0.02143683
Mg       4.70892322       4.53991778      12.64338870       0.00804553      -0.02283994      -0.01030991
Mg       7.85977117       2.72723778      10.10777429      -0.03059028      -0.02249386       0.01943897
Mg       7.84406663       4.53108701      12.64544859       0.02963367       0.02109581      -0.01880754
Mg      10.98735014       2.71866998      10.10849763       0.02633136       0.00819850       0.02698389
Mg      10.99180980       4.53825026      12.64486874      -0.00685652      -0.01787552      -0.02388601
Mg      -3.13803286       5.43821463      10.10850612      -0.00464997       0.01778280       0.02487098
Mg      -3.15091378       7.25544912      12.63696970       0.06330455      -0.00472555       0.01317164
Mg       0.00043570       5.43197816      10.12504301       0.00726072       0.02631776      -0.05742907
Mg       0.00625432       7.24514984      12.63751830      -0.03010328       0.04147144       0.02386477
Mg       3.14217362       5.44181318      10.11255158      -0.01292669      -0.00351360      -0.00395024
Mg       3.14640688       7.25459970      12.63923768      -0.03260414       0.00786171       0.00160345
Mg       6.28208936       5.42987728      10.11256811      -0.00744422       0.02755815       0.00713183
Mg       6.28018273       7.26001155      12.63249212       0.01269483      -0.02084020       0.01756317
Mg       9.42594979       5.44025675      10.11064776      -0.01746866      -0.00132901       0.01531902
Mg       9.43892425       7.25999904      12.62984738      -0.07949871      -0.02612185       0.03192571
Mg      10.99048212       8.15582824      10.11624621       0.00174355       0.00880672      -0.04527869
Mg      -4.71390326       9.96947735      12.63773308       0.00931554       0.03721399       0.00298323
Mg      -1.57514788       8.16561702      10.11768894       0.02833287      -0.03151504      -0.02122534
Mg      -1.56882801       9.97656673      12.63684669      -0.01174760      -0.02324771       0.01686832
Mg       1.57353366       8.16474214      10.11416615      -0.01518888      -0.00946919      -0.00500901
Mg       1.56813114       9.98217737      12.63546069      -0.00075968      -0.03381604       0.00707906
Mg       4.70433670       8.16287476      10.10965505       0.01466977      -0.01590700      -0.00238429
Mg       4.69690497       9.97010384      12.63156630       0.03960361       0.03508912       0.02405165
Mg       7.84738798       8.14914415      10.11495470       0.01566387       0.03366329      -0.00769844
Mg       7.84334065       9.97761896      12.64745797       0.02164716      -0.01506864      -0.03908039
120
Lattice="15.7043475 0.0 0.0 -6.281739 10.88029111 0.0 0.0 0.0 15.167424" Properties=species:S:1:pos:R:3:forces:R:3 energy=-179.33280421 stress="-0.012946912494355629 0.0006011685649981993 2.3109624444221575e-06 0.0006011685649981993 -0.010073834089490665 6.654459852669946e-06 2.3109624444221575e-06 6.654459852669946e-06 -0.012802958071974384" free_energy=-179.3348108 pbc="T T T"
Mg       9.42876916      10.86692195       0.00681184       0.03081070       0.03464889      -0.00875753
Mg      -0.01558911       1.81720479       2.52969396       0.07762839      -0.02274933       0.01300477
Mg      -3.13034325      10.86738502       0.01437280      -0.02767718       0.02280558      -0.06551369
Mg       3.14016613       1.81068140       2.52691392       0.00828831      -0.00500694      -0.00655203
Mg       6.28095918       0.00999072      15.15982831      -0.00068188      -0.02923923       0.02762478
Mg       6.29343415       1.81900983       2.52024268      -0.04488054      -0.03402840       0.01133020
Mg       9.40826047       0.01048871      15.16039921       0.06822419      -0.02449198       0.00795915
Mg       9.43047490       1.82101158       2.52922407       0.02046037      -0.01910916       0.01228392
Mg       6.31225952      10.86847228       0.00556250      -0.12449912       0.05270049      -0.02884158
Mg      12.59021877       1.83154871       2.53617788      -0.08629463      -0.08125520      -0.02582076
Mg      -1.55447571       2.70459752       0.00399965      -0.04617744       0.03202877      -0.03432591
Mg      -1.58079786       4.51795025       2.51140796       0.04359513       0.07575566       0.04228275
Mg       1.59651625       2.72209727      15.16396856      -0.05370567      -0.02676553       0.01083259
Mg       1.58756647       4.52321990       2.52765197      -0.06282702       0.04771508      -0.03701790
Mg       4.71923444       2.71494577      15.16382932       0.01535872       0.01352287       0.01219865
Mg       4.70683677       4.52706347       2.53395100       0.00882848       0.01844517      -0.02847013
Mg       7.86796438       2.72361148       0.00448713      -0.04049654       0.00411916      -0.01427949
Mg       7.83317780       4.52032542       2.54364829       0.06151381       0.05816936      -0.04985038
Mg      10.97768506       2.71236104       0.00190002       0.08588632       0.00424798       0.00364364
Mg      11.00885615       4.54031741       2.52108023      -0.05717547      -0.00811120       0.02026160
Mg      12.56245986       5.43453002      15.14557381       0.02484685       0.01837633       0.05247993
Mg      -3.14686994       7.27191840       2.53290794       0.01358994      -0.07655525      -0.03922416
Mg       0.00463523       5.42590989      15.16199300       0.01143681       0.03291051       0.01768818
Mg      -0.00741930       7.25086090       2.51326961       0.02880745      -0.01874158       0.07314267
Mg       3.16423590       5.43502355      15.15191986      -0.06966312       0.03160759       0.05723875
Mg       3.13647659       7.26023536       2.52884655      -0.00535075      -0.02755326      -0.01648064
Mg       6.28993793       5.43175522      15.16433000      -0.01938091       0.03705077       0.03372220
Mg       6.25833522       7.25763247       2.53879654       0.07554712      -0.02310932      -0.05336487
Mg       9.42393724       5.45249904       0.01574940      -0.01815834      -0.02503688      -0.03961954
Mg       9.42918900       7.24228614       2.54019679      -0.06253971       0.04398019      -0.06244684
Mg      10.97399554       8.16329212      15.13973405       0.06464419      -0.02494923       0.10404443
Mg      -4.69725539       9.97064970       2.52569765      -0.06351888       0.01072231      -0.00560315
Mg      -1.56469330       8.16655349       0.01812947      -0.01564787      -0.04098025      -0.09310607
Mg      -1.57408636       9.96892398       2.52927473       0.03371233       0.03429445       0.00768797